                                                                                      
                                       ``:oss/                                        
                           `.+s+.     .+ys--yh+     `./ss+.                           
                          -sh//yy+`   +yy   +yy    -+h+-oyy                           
                          -yh- .oyy/.-sh.   .syo-.:sy-  /yh                           
                 `.-.`    `yh+   -oyyyo.     `/syys:    oys      `.`                  
               `/+ssys+-` `sh+      `                   oys`   .:osyo`                
               -yh- ./syyooyo`                          .sys+/oyo--yh/                
               `yy+    .-:-.                             `-/+/:`  -sh-                
                /yh.                                              oys                 
          ``..---hho---------`   .---------..`      `.-----.`    -hd+---.             
       `./osmNMMMMMMMMMMMMMMMs. +NNMMMMMMMMNNmh+.   yNMMMMMNm-  oNMMMMMNmo++:`        
       +sy--/sdMMMhyyyyyyyNMMh- .oyNMMmyyyyyhNMMm+` -yMMMdyyo:` .oyyNMMNhs+syy`       
       -yy/   /MMM+.`-+/``mMMy-   `mMMh:`````.dMMN:` `MMMy-`-dhhy```mMMy:``+hs        
        -yy+` /MMMo:-mMM+`-oo/.    mMMh:     `dMMN/`  dMMm:`dMMMMy..MMMo-.+yo`        
         .sys`/MMMMNNMMMs-         mMMmyooooymMMNo:   oMMM/sMMMMMM++MMN//oh:          
          `sh+/MMMhyyMMMs- `-`     mMMMMMMMMMNmy+-`   -MMMhMMMsmMMmdMMd/yy+           
    `-/+++oyy-/MMM+.`/hh/.`mNm:`   mMMd+/////:-.`      NMMMMMd/:NMMMMMy:/yyo/:.`      
   +os+//:-..-oMMMo:--:::-/MMMo. .-mMMd+---`           hMMMMN+. oMMMMMo. `-+osyso:`   
   syo     `mNMMMMMNNNNNNNNMMMo.oNNMMMMMNNNN:`         +MMMMs:`  dMMMN/`     ``:syo   
   /yh`     :syyyyyyyyyyyyyyyy+.`+syyyyyyyyo:`         .oyys:`   .oyys:`        +yh   
   -yh-        ````````````````    `````````              ``        ``          oys   
   -+h/------------------------::::::::://////++++++++++++++++++++++///////::::/yd:   
   shdddddddddddddddddddddddddddddhhhhhhhhyyyyyssssssssssssssssyyyyyyyhhhhhhhddddh`   
                                                                                      
  S. Ponce, E. R. Margine, C. Verdi, and F. Giustino,                                 
                                                Comput. Phys. Commun. 209, 116 (2016) 
                                                                                      

     Program EPW v.5.4.1 starts on 26Mar2023 at 19:26: 4 

     This program is part of the open-source Quantum ESPRESSO suite
     for quantum simulation of materials; please cite
         "P. Giannozzi et al., J. Phys.:Condens. Matter 21 395502 (2009);
         "P. Giannozzi et al., J. Phys.:Condens. Matter 29 465901 (2017);
         "P. Giannozzi et al., J. Chem. Phys. 152 154105 (2020);
          URL http://www.quantum-espresso.org", 
     in publications or presentations arising from this work. More details at
     http://www.quantum-espresso.org/quote

     Parallel version (MPI), running on     8 processors

     MPI processes distributed on     1 nodes
     K-points division:     npool     =       8
     2774 MiB available memory on the printing compute node when the environment starts

     Waiting for input...
     Reading input from standard input

     Reading supplied temperature list.

     Reading xml data from directory:

     ./C2H2.save/

     IMPORTANT: XC functional enforced from input :
     Exchange-correlation= PBE
                           (   1   4   3   4   0   0   0)
     Any further DFT definition will be discarded
     Please, verify this is what you really want


     G-vector sticks info
     --------------------
     sticks:   dense  smooth     PW     G-vecs:    dense   smooth      PW
     Sum         379     379    163                47317    47317   13365

     Using Slab Decomposition

     Reading collected, re-writing distributed wavefunctions

     --                                                                         

     bravais-lattice index     =           12
     lattice parameter (a_0)   =       4.7961  a.u.
     unit-cell volume          =     752.9055 (a.u.)^3
     number of atoms/cell      =            4
     number of atomic types    =            2
     kinetic-energy cut-off    =      60.0000  Ry
     charge density cut-off    =     240.0000  Ry
     Exchange-correlation= PBE
                           (   1   4   3   4   0   0   0)


     celldm(1)=    4.79612  celldm(2)=    1.00000  celldm(3)=    7.88022
     celldm(4)=   -0.50000  celldm(5)=    0.00000  celldm(6)=    0.00000

     crystal axes: (cart. coord. in units of a_0)
               a(1) = (  1.0000  0.0000  0.0000 )  
               a(2) = ( -0.5000  0.8660  0.0000 )  
               a(3) = (  0.0000  0.0000  7.8802 )  

     reciprocal axes: (cart. coord. in units 2 pi/a_0)
               b(1) = (  1.0000  0.5774 -0.0000 )  
               b(2) = (  0.0000  1.1547  0.0000 )  
               b(3) = (  0.0000 -0.0000  0.1269 )  


     Atoms inside the unit cell: 

   Cartesian axes

     site n.  atom      mass           positions (a_0 units)
        1        C   12.0110   tau( 1) = (   -0.00000    0.57742    3.94019  )
        2        C   12.0110   tau( 2) = (    0.50000    0.28874    4.12127  )
        3        H    1.0079   tau( 3) = (   -0.00000    0.57744    3.50217  )
        4        H    1.0079   tau( 4) = (    0.50000    0.28873    4.55930  )

      3 Sym.Ops. (with q -> -q+G )


     G cutoff =  139.8403  (  47317 G-vectors)     FFT grid: ( 24, 24,192)
     number of k points=  144
                       cart. coord. in units 2pi/a_0
        k(    1) = (   0.0000000   0.0000000   0.0000000), wk =   0.0138889
        k(    2) = (   0.0000000   0.0962250   0.0000000), wk =   0.0138889
        k(    3) = (   0.0000000   0.1924501   0.0000000), wk =   0.0138889
        k(    4) = (   0.0000000   0.2886751   0.0000000), wk =   0.0138889
        k(    5) = (   0.0000000   0.3849002   0.0000000), wk =   0.0138889
        k(    6) = (   0.0000000   0.4811252   0.0000000), wk =   0.0138889
        k(    7) = (   0.0000000   0.5773503   0.0000000), wk =   0.0138889
        k(    8) = (   0.0000000   0.6735753   0.0000000), wk =   0.0138889
        k(    9) = (   0.0000000   0.7698004   0.0000000), wk =   0.0138889
        k(   10) = (   0.0000000   0.8660254   0.0000000), wk =   0.0138889
        k(   11) = (   0.0000000   0.9622504   0.0000000), wk =   0.0138889
        k(   12) = (   0.0000000   1.0584755   0.0000000), wk =   0.0138889
        k(   13) = (   0.0833333   0.0481125   0.0000000), wk =   0.0138889
        k(   14) = (   0.0833333   0.1443376   0.0000000), wk =   0.0138889
        k(   15) = (   0.0833333   0.2405626   0.0000000), wk =   0.0138889
        k(   16) = (   0.0833333   0.3367877   0.0000000), wk =   0.0138889
        k(   17) = (   0.0833333   0.4330127   0.0000000), wk =   0.0138889
        k(   18) = (   0.0833333   0.5292377   0.0000000), wk =   0.0138889
        k(   19) = (   0.0833333   0.6254628   0.0000000), wk =   0.0138889
        k(   20) = (   0.0833333   0.7216878   0.0000000), wk =   0.0138889
        k(   21) = (   0.0833333   0.8179129   0.0000000), wk =   0.0138889
        k(   22) = (   0.0833333   0.9141379   0.0000000), wk =   0.0138889
        k(   23) = (   0.0833333   1.0103630   0.0000000), wk =   0.0138889
        k(   24) = (   0.0833333   1.1065880   0.0000000), wk =   0.0138889
        k(   25) = (   0.1666667   0.0962250   0.0000000), wk =   0.0138889
        k(   26) = (   0.1666667   0.1924501   0.0000000), wk =   0.0138889
        k(   27) = (   0.1666667   0.2886751   0.0000000), wk =   0.0138889
        k(   28) = (   0.1666667   0.3849002   0.0000000), wk =   0.0138889
        k(   29) = (   0.1666667   0.4811252   0.0000000), wk =   0.0138889
        k(   30) = (   0.1666667   0.5773503   0.0000000), wk =   0.0138889
        k(   31) = (   0.1666667   0.6735753   0.0000000), wk =   0.0138889
        k(   32) = (   0.1666667   0.7698004   0.0000000), wk =   0.0138889
        k(   33) = (   0.1666667   0.8660254   0.0000000), wk =   0.0138889
        k(   34) = (   0.1666667   0.9622505   0.0000000), wk =   0.0138889
        k(   35) = (   0.1666667   1.0584755   0.0000000), wk =   0.0138889
        k(   36) = (   0.1666667   1.1547005   0.0000000), wk =   0.0138889
        k(   37) = (   0.2500000   0.1443376   0.0000000), wk =   0.0138889
        k(   38) = (   0.2500000   0.2405626   0.0000000), wk =   0.0138889
        k(   39) = (   0.2500000   0.3367877   0.0000000), wk =   0.0138889
        k(   40) = (   0.2500000   0.4330127   0.0000000), wk =   0.0138889
        k(   41) = (   0.2500000   0.5292377   0.0000000), wk =   0.0138889
        k(   42) = (   0.2500000   0.6254628   0.0000000), wk =   0.0138889
        k(   43) = (   0.2500000   0.7216878   0.0000000), wk =   0.0138889
        k(   44) = (   0.2500000   0.8179129   0.0000000), wk =   0.0138889
        k(   45) = (   0.2500000   0.9141379   0.0000000), wk =   0.0138889
        k(   46) = (   0.2500000   1.0103630   0.0000000), wk =   0.0138889
        k(   47) = (   0.2500000   1.1065880   0.0000000), wk =   0.0138889
        k(   48) = (   0.2500000   1.2028131   0.0000000), wk =   0.0138889
        k(   49) = (   0.3333333   0.1924501   0.0000000), wk =   0.0138889
        k(   50) = (   0.3333333   0.2886751   0.0000000), wk =   0.0138889
        k(   51) = (   0.3333333   0.3849002   0.0000000), wk =   0.0138889
        k(   52) = (   0.3333333   0.4811252   0.0000000), wk =   0.0138889
        k(   53) = (   0.3333333   0.5773503   0.0000000), wk =   0.0138889
        k(   54) = (   0.3333333   0.6735753   0.0000000), wk =   0.0138889
        k(   55) = (   0.3333333   0.7698004   0.0000000), wk =   0.0138889
        k(   56) = (   0.3333333   0.8660254   0.0000000), wk =   0.0138889
        k(   57) = (   0.3333333   0.9622505   0.0000000), wk =   0.0138889
        k(   58) = (   0.3333333   1.0584755   0.0000000), wk =   0.0138889
        k(   59) = (   0.3333333   1.1547005   0.0000000), wk =   0.0138889
        k(   60) = (   0.3333333   1.2509256   0.0000000), wk =   0.0138889
        k(   61) = (   0.4166667   0.2405626   0.0000000), wk =   0.0138889
        k(   62) = (   0.4166667   0.3367877   0.0000000), wk =   0.0138889
        k(   63) = (   0.4166667   0.4330127   0.0000000), wk =   0.0138889
        k(   64) = (   0.4166667   0.5292377   0.0000000), wk =   0.0138889
        k(   65) = (   0.4166667   0.6254628   0.0000000), wk =   0.0138889
        k(   66) = (   0.4166667   0.7216878   0.0000000), wk =   0.0138889
        k(   67) = (   0.4166667   0.8179129   0.0000000), wk =   0.0138889
        k(   68) = (   0.4166667   0.9141379   0.0000000), wk =   0.0138889
        k(   69) = (   0.4166667   1.0103630   0.0000000), wk =   0.0138889
        k(   70) = (   0.4166667   1.1065880   0.0000000), wk =   0.0138889
        k(   71) = (   0.4166667   1.2028131   0.0000000), wk =   0.0138889
        k(   72) = (   0.4166667   1.2990381   0.0000000), wk =   0.0138889
        k(   73) = (   0.5000000   0.2886751   0.0000000), wk =   0.0138889
        k(   74) = (   0.5000000   0.3849002   0.0000000), wk =   0.0138889
        k(   75) = (   0.5000000   0.4811252   0.0000000), wk =   0.0138889
        k(   76) = (   0.5000000   0.5773503   0.0000000), wk =   0.0138889
        k(   77) = (   0.5000000   0.6735753   0.0000000), wk =   0.0138889
        k(   78) = (   0.5000000   0.7698004   0.0000000), wk =   0.0138889
        k(   79) = (   0.5000000   0.8660254   0.0000000), wk =   0.0138889
        k(   80) = (   0.5000000   0.9622504   0.0000000), wk =   0.0138889
        k(   81) = (   0.5000000   1.0584755   0.0000000), wk =   0.0138889
        k(   82) = (   0.5000000   1.1547005   0.0000000), wk =   0.0138889
        k(   83) = (   0.5000000   1.2509256   0.0000000), wk =   0.0138889
        k(   84) = (   0.5000000   1.3471506   0.0000000), wk =   0.0138889
        k(   85) = (   0.5833333   0.3367877   0.0000000), wk =   0.0138889
        k(   86) = (   0.5833333   0.4330127   0.0000000), wk =   0.0138889
        k(   87) = (   0.5833333   0.5292377   0.0000000), wk =   0.0138889
        k(   88) = (   0.5833333   0.6254628   0.0000000), wk =   0.0138889
        k(   89) = (   0.5833333   0.7216878   0.0000000), wk =   0.0138889
        k(   90) = (   0.5833333   0.8179129   0.0000000), wk =   0.0138889
        k(   91) = (   0.5833333   0.9141379   0.0000000), wk =   0.0138889
        k(   92) = (   0.5833333   1.0103630   0.0000000), wk =   0.0138889
        k(   93) = (   0.5833333   1.1065880   0.0000000), wk =   0.0138889
        k(   94) = (   0.5833333   1.2028131   0.0000000), wk =   0.0138889
        k(   95) = (   0.5833333   1.2990381   0.0000000), wk =   0.0138889
        k(   96) = (   0.5833333   1.3952632   0.0000000), wk =   0.0138889
        k(   97) = (   0.6666667   0.3849002   0.0000000), wk =   0.0138889
        k(   98) = (   0.6666667   0.4811252   0.0000000), wk =   0.0138889
        k(   99) = (   0.6666667   0.5773503   0.0000000), wk =   0.0138889
        k(  100) = (   0.6666667   0.6735753   0.0000000), wk =   0.0138889
        k(  101) = (   0.6666667   0.7698004   0.0000000), wk =   0.0138889
        k(  102) = (   0.6666667   0.8660254   0.0000000), wk =   0.0138889
        k(  103) = (   0.6666667   0.9622505   0.0000000), wk =   0.0138889
        k(  104) = (   0.6666667   1.0584755   0.0000000), wk =   0.0138889
        k(  105) = (   0.6666667   1.1547005   0.0000000), wk =   0.0138889
        k(  106) = (   0.6666667   1.2509256   0.0000000), wk =   0.0138889
        k(  107) = (   0.6666667   1.3471506   0.0000000), wk =   0.0138889
        k(  108) = (   0.6666667   1.4433757   0.0000000), wk =   0.0138889
        k(  109) = (   0.7500000   0.4330127   0.0000000), wk =   0.0138889
        k(  110) = (   0.7500000   0.5292377   0.0000000), wk =   0.0138889
        k(  111) = (   0.7500000   0.6254628   0.0000000), wk =   0.0138889
        k(  112) = (   0.7500000   0.7216878   0.0000000), wk =   0.0138889
        k(  113) = (   0.7500000   0.8179129   0.0000000), wk =   0.0138889
        k(  114) = (   0.7500000   0.9141379   0.0000000), wk =   0.0138889
        k(  115) = (   0.7500000   1.0103630   0.0000000), wk =   0.0138889
        k(  116) = (   0.7500000   1.1065880   0.0000000), wk =   0.0138889
        k(  117) = (   0.7500000   1.2028131   0.0000000), wk =   0.0138889
        k(  118) = (   0.7500000   1.2990381   0.0000000), wk =   0.0138889
        k(  119) = (   0.7500000   1.3952631   0.0000000), wk =   0.0138889
        k(  120) = (   0.7500000   1.4914882   0.0000000), wk =   0.0138889
        k(  121) = (   0.8333333   0.4811252   0.0000000), wk =   0.0138889
        k(  122) = (   0.8333333   0.5773503   0.0000000), wk =   0.0138889
        k(  123) = (   0.8333333   0.6735753   0.0000000), wk =   0.0138889
        k(  124) = (   0.8333333   0.7698004   0.0000000), wk =   0.0138889
        k(  125) = (   0.8333333   0.8660254   0.0000000), wk =   0.0138889
        k(  126) = (   0.8333333   0.9622505   0.0000000), wk =   0.0138889
        k(  127) = (   0.8333333   1.0584755   0.0000000), wk =   0.0138889
        k(  128) = (   0.8333333   1.1547005   0.0000000), wk =   0.0138889
        k(  129) = (   0.8333333   1.2509256   0.0000000), wk =   0.0138889
        k(  130) = (   0.8333333   1.3471506   0.0000000), wk =   0.0138889
        k(  131) = (   0.8333333   1.4433757   0.0000000), wk =   0.0138889
        k(  132) = (   0.8333333   1.5396007   0.0000000), wk =   0.0138889
        k(  133) = (   0.9166667   0.5292377   0.0000000), wk =   0.0138889
        k(  134) = (   0.9166667   0.6254628   0.0000000), wk =   0.0138889
        k(  135) = (   0.9166667   0.7216878   0.0000000), wk =   0.0138889
        k(  136) = (   0.9166667   0.8179129   0.0000000), wk =   0.0138889
        k(  137) = (   0.9166667   0.9141379   0.0000000), wk =   0.0138889
        k(  138) = (   0.9166667   1.0103630   0.0000000), wk =   0.0138889
        k(  139) = (   0.9166667   1.1065880   0.0000000), wk =   0.0138889
        k(  140) = (   0.9166667   1.2028131   0.0000000), wk =   0.0138889
        k(  141) = (   0.9166667   1.2990381   0.0000000), wk =   0.0138889
        k(  142) = (   0.9166667   1.3952632   0.0000000), wk =   0.0138889
        k(  143) = (   0.9166667   1.4914882   0.0000000), wk =   0.0138889
        k(  144) = (   0.9166667   1.5877132   0.0000000), wk =   0.0138889

     PseudoPot. # 1 for C  read from file:
     ./C.pbe-hgh.UPF
     MD5 check sum: ca26ff84b356733038fc2f5c468d1892
     Pseudo is Norm-conserving, Zval =  4.0
     Generated in analytical, separable form
     Using radial grid of 1073 points,  1 beta functions with: 
                l(1) =   0

     PseudoPot. # 2 for H  read from file:
     ./H.pbe-hgh.UPF
     MD5 check sum: 50ae4f52d34cf16cdfed4bce9c5a191e
     Pseudo is Norm-conserving, Zval =  1.0
     Generated in analytical, separable form
     Using radial grid of  929 points,  0 beta functions with: 
     EPW          :      0.56s CPU      0.81s WALL

     EPW          :      1.19s CPU      1.46s WALL

     -------------------------------------------------------------------
     Wannierization on 12 x 12 x  1 electronic grid
     -------------------------------------------------------------------

     Spin CASE ( default = unpolarized )

     Initializing Wannier90


     Initial Wannier auto_projections


      - Number of bands is ( 12)
      - Number of total bands is ( 12)
      - Number of excluded bands is (  0)
      - Number of wannier functions is ( 12)

  Reading data about k-point neighbours 

      - All neighbours are found 

 Case  : isolated

     AMN with SCDM
      k points =   144 in    8 pools
            1 of   18 on ionode
            2 of   18 on ionode
            3 of   18 on ionode
            4 of   18 on ionode
            5 of   18 on ionode
            6 of   18 on ionode
            7 of   18 on ionode
            8 of   18 on ionode
            9 of   18 on ionode
           10 of   18 on ionode
           11 of   18 on ionode
           12 of   18 on ionode
           13 of   18 on ionode
           14 of   18 on ionode
           15 of   18 on ionode
           16 of   18 on ionode
           17 of   18 on ionode
           18 of   18 on ionode

     AMN calculated with SCDM

     MMN
      k points =   144 in    8 pools
            1 of   18 on ionode
            2 of   18 on ionode
            3 of   18 on ionode
            4 of   18 on ionode
            5 of   18 on ionode
            6 of   18 on ionode
            7 of   18 on ionode
            8 of   18 on ionode
            9 of   18 on ionode
           10 of   18 on ionode
           11 of   18 on ionode
           12 of   18 on ionode
           13 of   18 on ionode
           14 of   18 on ionode
           15 of   18 on ionode
           16 of   18 on ionode
           17 of   18 on ionode
           18 of   18 on ionode
     MMN calculated

     Running Wannier90

     Wannier Function centers (cartesian, alat) and spreads (ang):

     (   0.08166  -0.00306  -3.12533) :  15.80977
     (  -0.26071   0.37051  -3.26951) :  26.69292
     (  -0.52910   0.00704  -3.85562) :   0.99513
     (  -0.50344   0.27556  -3.63658) :   2.54016
     (   0.39468  -0.24211   3.23079) :  18.11681
     (  -0.58032   0.40113  -3.05389) :  34.69160
     (  -0.22635   0.10562  -3.72637) :   9.63544
     (   0.48238  -0.28820   3.61625) :   1.32432
     (  -0.43828   0.00378   2.26699) :  20.70556
     (   0.24456  -0.13058  -1.06565) :  17.38191
     (  -0.43119   0.31056  -2.58499) :  14.34935
     (   0.81054  -0.23690   1.48126) :  20.08344

     -------------------------------------------------------------------
     WANNIER      :     25.03s CPU     25.47s WALL (       1 calls)
     -------------------------------------------------------------------

     Calculating kgmap

     Progress kgmap: ########################################
     kmaps        :      0.14s CPU      0.18s WALL (       1 calls)
     Symmetries of Bravais lattice:  24
     Symmetries of crystal:           2


     ===================================================================
     irreducible q point #    1
     ===================================================================

     Symmetries of small group of q:  2
          in addition sym. q -> -q+G:

     Number of q in the star =    1
     List of q in the star:
          1   0.000000000   0.000000000   0.000000000
     Imposing acoustic sum rule on the dynamical matrix
     Read dielectric tensor and effective charges

        q(    1 ) = (   0.0000000   0.0000000   0.0000000 )


     ===================================================================
     irreducible q point #    2
     ===================================================================

     Symmetries of small group of q:  2

     Number of q in the star =    1
     List of q in the star:
          1   0.000000000   0.096225045   0.000000000
     In addition there is the -q list: 
          1  -0.000000000  -0.096225045  -0.000000000

        q(    2 ) = (   0.0000000   0.0962250   0.0000000 )

        q(    3 ) = (  -0.0000000  -0.0962250  -0.0000000 )


     ===================================================================
     irreducible q point #    3
     ===================================================================

     Symmetries of small group of q:  2

     Number of q in the star =    1
     List of q in the star:
          1   0.000000000   0.192450090   0.000000000
     In addition there is the -q list: 
          1  -0.000000000  -0.192450090  -0.000000000

        q(    4 ) = (   0.0000000   0.1924501   0.0000000 )

        q(    5 ) = (  -0.0000000  -0.1924501  -0.0000000 )


     ===================================================================
     irreducible q point #    4
     ===================================================================

     Symmetries of small group of q:  2

     Number of q in the star =    1
     List of q in the star:
          1   0.000000000   0.288675135   0.000000000
     In addition there is the -q list: 
          1  -0.000000000  -0.288675135  -0.000000000

        q(    6 ) = (   0.0000000   0.2886751   0.0000000 )

        q(    7 ) = (  -0.0000000  -0.2886751  -0.0000000 )


     ===================================================================
     irreducible q point #    5
     ===================================================================

     Symmetries of small group of q:  2

     Number of q in the star =    1
     List of q in the star:
          1   0.000000000   0.384900179   0.000000000
     In addition there is the -q list: 
          1  -0.000000000  -0.384900179  -0.000000000

        q(    8 ) = (   0.0000000   0.3849002   0.0000000 )

        q(    9 ) = (  -0.0000000  -0.3849002  -0.0000000 )


     ===================================================================
     irreducible q point #    6
     ===================================================================

     Symmetries of small group of q:  2

     Number of q in the star =    1
     List of q in the star:
          1   0.000000000   0.481125224   0.000000000
     In addition there is the -q list: 
          1  -0.000000000  -0.481125224  -0.000000000

        q(   10 ) = (   0.0000000   0.4811252   0.0000000 )

        q(   11 ) = (  -0.0000000  -0.4811252  -0.0000000 )


     ===================================================================
     irreducible q point #    7
     ===================================================================

     Symmetries of small group of q:  2
          in addition sym. q -> -q+G:

     Number of q in the star =    1
     List of q in the star:
          1   0.000000000  -0.577350269   0.000000000

        q(   12 ) = (   0.0000000  -0.5773503   0.0000000 )


     ===================================================================
     irreducible q point #    8
     ===================================================================

     Symmetries of small group of q:  1

     Number of q in the star =    2
     List of q in the star:
          1   0.083333333   0.048112522   0.000000000
          2  -0.083333333   0.048112522   0.000000000
     In addition there is the -q list: 
          1  -0.083333333  -0.048112522  -0.000000000
          2   0.083333333  -0.048112522  -0.000000000

        q(   13 ) = (   0.0833333   0.0481125   0.0000000 )

        q(   14 ) = (  -0.0833333  -0.0481125  -0.0000000 )
        q(   15 ) = (  -0.0833333   0.0481125   0.0000000 )
        q(   16 ) = (   0.0833333  -0.0481125  -0.0000000 )


     ===================================================================
     irreducible q point #    9
     ===================================================================

     Symmetries of small group of q:  1

     Number of q in the star =    2
     List of q in the star:
          1   0.083333333   0.144337567   0.000000000
          2  -0.083333333   0.144337567   0.000000000
     In addition there is the -q list: 
          1  -0.083333333  -0.144337567  -0.000000000
          2   0.083333333  -0.144337567  -0.000000000

        q(   17 ) = (   0.0833333   0.1443376   0.0000000 )

        q(   18 ) = (  -0.0833333  -0.1443376  -0.0000000 )
        q(   19 ) = (  -0.0833333   0.1443376   0.0000000 )
        q(   20 ) = (   0.0833333  -0.1443376  -0.0000000 )


     ===================================================================
     irreducible q point #   10
     ===================================================================

     Symmetries of small group of q:  1

     Number of q in the star =    2
     List of q in the star:
          1   0.083333333   0.240562612   0.000000000
          2  -0.083333333   0.240562612   0.000000000
     In addition there is the -q list: 
          1  -0.083333333  -0.240562612  -0.000000000
          2   0.083333333  -0.240562612  -0.000000000

        q(   21 ) = (   0.0833333   0.2405626   0.0000000 )

        q(   22 ) = (  -0.0833333  -0.2405626  -0.0000000 )
        q(   23 ) = (  -0.0833333   0.2405626   0.0000000 )
        q(   24 ) = (   0.0833333  -0.2405626  -0.0000000 )


     ===================================================================
     irreducible q point #   11
     ===================================================================

     Symmetries of small group of q:  1

     Number of q in the star =    2
     List of q in the star:
          1   0.083333333   0.336787657   0.000000000
          2  -0.083333333   0.336787657   0.000000000
     In addition there is the -q list: 
          1  -0.083333333  -0.336787657  -0.000000000
          2   0.083333333  -0.336787657  -0.000000000

        q(   25 ) = (   0.0833333   0.3367877   0.0000000 )

        q(   26 ) = (  -0.0833333  -0.3367877  -0.0000000 )
        q(   27 ) = (  -0.0833333   0.3367877   0.0000000 )
        q(   28 ) = (   0.0833333  -0.3367877  -0.0000000 )


     ===================================================================
     irreducible q point #   12
     ===================================================================

     Symmetries of small group of q:  1

     Number of q in the star =    2
     List of q in the star:
          1   0.083333333   0.433012702   0.000000000
          2  -0.083333333   0.433012702   0.000000000
     In addition there is the -q list: 
          1  -0.083333333  -0.433012702  -0.000000000
          2   0.083333333  -0.433012702  -0.000000000

        q(   29 ) = (   0.0833333   0.4330127   0.0000000 )

        q(   30 ) = (  -0.0833333  -0.4330127  -0.0000000 )
        q(   31 ) = (  -0.0833333   0.4330127   0.0000000 )
        q(   32 ) = (   0.0833333  -0.4330127  -0.0000000 )


     ===================================================================
     irreducible q point #   13
     ===================================================================

     Symmetries of small group of q:  1

     Number of q in the star =    2
     List of q in the star:
          1   0.083333333   0.529237747   0.000000000
          2  -0.083333333   0.529237747   0.000000000
     In addition there is the -q list: 
          1  -0.083333333  -0.529237747  -0.000000000
          2   0.083333333  -0.529237747  -0.000000000

        q(   33 ) = (   0.0833333   0.5292377   0.0000000 )

        q(   34 ) = (  -0.0833333  -0.5292377  -0.0000000 )
        q(   35 ) = (  -0.0833333   0.5292377   0.0000000 )
        q(   36 ) = (   0.0833333  -0.5292377  -0.0000000 )


     ===================================================================
     irreducible q point #   14
     ===================================================================

     Symmetries of small group of q:  1

     Number of q in the star =    2
     List of q in the star:
          1   0.166666667   0.096225045   0.000000000
          2  -0.166666667   0.096225045   0.000000000
     In addition there is the -q list: 
          1  -0.166666667  -0.096225045  -0.000000000
          2   0.166666667  -0.096225045  -0.000000000

        q(   37 ) = (   0.1666667   0.0962250   0.0000000 )

        q(   38 ) = (  -0.1666667  -0.0962250  -0.0000000 )
        q(   39 ) = (  -0.1666667   0.0962250   0.0000000 )
        q(   40 ) = (   0.1666667  -0.0962250  -0.0000000 )


     ===================================================================
     irreducible q point #   15
     ===================================================================

     Symmetries of small group of q:  1

     Number of q in the star =    2
     List of q in the star:
          1   0.166666667   0.192450090   0.000000000
          2  -0.166666667   0.192450090   0.000000000
     In addition there is the -q list: 
          1  -0.166666667  -0.192450090  -0.000000000
          2   0.166666667  -0.192450090  -0.000000000

        q(   41 ) = (   0.1666667   0.1924501   0.0000000 )

        q(   42 ) = (  -0.1666667  -0.1924501  -0.0000000 )
        q(   43 ) = (  -0.1666667   0.1924501   0.0000000 )
        q(   44 ) = (   0.1666667  -0.1924501  -0.0000000 )


     ===================================================================
     irreducible q point #   16
     ===================================================================

     Symmetries of small group of q:  1

     Number of q in the star =    2
     List of q in the star:
          1   0.166666667   0.288675135   0.000000000
          2  -0.166666667   0.288675135   0.000000000
     In addition there is the -q list: 
          1  -0.166666667  -0.288675135  -0.000000000
          2   0.166666667  -0.288675135  -0.000000000

        q(   45 ) = (   0.1666667   0.2886751   0.0000000 )

        q(   46 ) = (  -0.1666667  -0.2886751  -0.0000000 )
        q(   47 ) = (  -0.1666667   0.2886751   0.0000000 )
        q(   48 ) = (   0.1666667  -0.2886751  -0.0000000 )


     ===================================================================
     irreducible q point #   17
     ===================================================================

     Symmetries of small group of q:  1

     Number of q in the star =    2
     List of q in the star:
          1   0.166666667   0.384900179   0.000000000
          2  -0.166666667   0.384900179   0.000000000
     In addition there is the -q list: 
          1  -0.166666667  -0.384900179  -0.000000000
          2   0.166666667  -0.384900179  -0.000000000

        q(   49 ) = (   0.1666667   0.3849002   0.0000000 )

        q(   50 ) = (  -0.1666667  -0.3849002  -0.0000000 )
        q(   51 ) = (  -0.1666667   0.3849002   0.0000000 )
        q(   52 ) = (   0.1666667  -0.3849002  -0.0000000 )


     ===================================================================
     irreducible q point #   18
     ===================================================================

     Symmetries of small group of q:  1

     Number of q in the star =    2
     List of q in the star:
          1   0.166666667   0.481125224   0.000000000
          2  -0.166666667   0.481125224   0.000000000
     In addition there is the -q list: 
          1  -0.166666667  -0.481125224  -0.000000000
          2   0.166666667  -0.481125224  -0.000000000

        q(   53 ) = (   0.1666667   0.4811252   0.0000000 )

        q(   54 ) = (  -0.1666667  -0.4811252  -0.0000000 )
        q(   55 ) = (  -0.1666667   0.4811252   0.0000000 )
        q(   56 ) = (   0.1666667  -0.4811252  -0.0000000 )


     ===================================================================
     irreducible q point #   19
     ===================================================================

     Symmetries of small group of q:  1

     Number of q in the star =    2
     List of q in the star:
          1   0.166666667   0.577350269   0.000000000
          2  -0.166666667   0.577350269   0.000000000

        q(   57 ) = (   0.1666667   0.5773503   0.0000000 )
        q(   58 ) = (  -0.1666667   0.5773503   0.0000000 )


     ===================================================================
     irreducible q point #   20
     ===================================================================

     Symmetries of small group of q:  1

     Number of q in the star =    2
     List of q in the star:
          1   0.166666667  -0.000000000   0.000000000
          2  -0.166666667  -0.000000000   0.000000000

        q(   59 ) = (   0.1666667  -0.0000000   0.0000000 )
        q(   60 ) = (  -0.1666667  -0.0000000   0.0000000 )


     ===================================================================
     irreducible q point #   21
     ===================================================================

     Symmetries of small group of q:  1

     Number of q in the star =    2
     List of q in the star:
          1   0.250000000   0.144337567   0.000000000
          2  -0.250000000   0.144337567   0.000000000
     In addition there is the -q list: 
          1  -0.250000000  -0.144337567  -0.000000000
          2   0.250000000  -0.144337567  -0.000000000

        q(   61 ) = (   0.2500000   0.1443376   0.0000000 )

        q(   62 ) = (  -0.2500000  -0.1443376  -0.0000000 )
        q(   63 ) = (  -0.2500000   0.1443376   0.0000000 )
        q(   64 ) = (   0.2500000  -0.1443376  -0.0000000 )


     ===================================================================
     irreducible q point #   22
     ===================================================================

     Symmetries of small group of q:  1

     Number of q in the star =    2
     List of q in the star:
          1   0.250000000   0.240562612   0.000000000
          2  -0.250000000   0.240562612   0.000000000
     In addition there is the -q list: 
          1  -0.250000000  -0.240562612  -0.000000000
          2   0.250000000  -0.240562612  -0.000000000

        q(   65 ) = (   0.2500000   0.2405626   0.0000000 )

        q(   66 ) = (  -0.2500000  -0.2405626  -0.0000000 )
        q(   67 ) = (  -0.2500000   0.2405626   0.0000000 )
        q(   68 ) = (   0.2500000  -0.2405626  -0.0000000 )


     ===================================================================
     irreducible q point #   23
     ===================================================================

     Symmetries of small group of q:  1

     Number of q in the star =    2
     List of q in the star:
          1   0.250000000   0.336787657   0.000000000
          2  -0.250000000   0.336787657   0.000000000
     In addition there is the -q list: 
          1  -0.250000000  -0.336787657  -0.000000000
          2   0.250000000  -0.336787657  -0.000000000

        q(   69 ) = (   0.2500000   0.3367877   0.0000000 )

        q(   70 ) = (  -0.2500000  -0.3367877  -0.0000000 )
        q(   71 ) = (  -0.2500000   0.3367877   0.0000000 )
        q(   72 ) = (   0.2500000  -0.3367877  -0.0000000 )


     ===================================================================
     irreducible q point #   24
     ===================================================================

     Symmetries of small group of q:  1

     Number of q in the star =    2
     List of q in the star:
          1   0.250000000   0.433012702   0.000000000
          2  -0.250000000   0.433012702   0.000000000
     In addition there is the -q list: 
          1  -0.250000000  -0.433012702  -0.000000000
          2   0.250000000  -0.433012702  -0.000000000

        q(   73 ) = (   0.2500000   0.4330127   0.0000000 )

        q(   74 ) = (  -0.2500000  -0.4330127  -0.0000000 )
        q(   75 ) = (  -0.2500000   0.4330127   0.0000000 )
        q(   76 ) = (   0.2500000  -0.4330127  -0.0000000 )


     ===================================================================
     irreducible q point #   25
     ===================================================================

     Symmetries of small group of q:  1

     Number of q in the star =    2
     List of q in the star:
          1   0.250000000   0.529237747   0.000000000
          2  -0.250000000   0.529237747   0.000000000
     In addition there is the -q list: 
          1  -0.250000000  -0.529237747  -0.000000000
          2   0.250000000  -0.529237747  -0.000000000

        q(   77 ) = (   0.2500000   0.5292377   0.0000000 )

        q(   78 ) = (  -0.2500000  -0.5292377  -0.0000000 )
        q(   79 ) = (  -0.2500000   0.5292377   0.0000000 )
        q(   80 ) = (   0.2500000  -0.5292377  -0.0000000 )


     ===================================================================
     irreducible q point #   26
     ===================================================================

     Symmetries of small group of q:  1

     Number of q in the star =    2
     List of q in the star:
          1   0.250000000  -0.048112522   0.000000000
          2  -0.250000000  -0.048112522   0.000000000
     In addition there is the -q list: 
          1  -0.250000000   0.048112522  -0.000000000
          2   0.250000000   0.048112522  -0.000000000

        q(   81 ) = (   0.2500000  -0.0481125   0.0000000 )

        q(   82 ) = (  -0.2500000   0.0481125  -0.0000000 )
        q(   83 ) = (  -0.2500000  -0.0481125   0.0000000 )
        q(   84 ) = (   0.2500000   0.0481125  -0.0000000 )


     ===================================================================
     irreducible q point #   27
     ===================================================================

     Symmetries of small group of q:  1

     Number of q in the star =    2
     List of q in the star:
          1   0.333333333   0.192450090   0.000000000
          2  -0.333333333   0.192450090   0.000000000
     In addition there is the -q list: 
          1  -0.333333333  -0.192450090  -0.000000000
          2   0.333333333  -0.192450090  -0.000000000

        q(   85 ) = (   0.3333333   0.1924501   0.0000000 )

        q(   86 ) = (  -0.3333333  -0.1924501  -0.0000000 )
        q(   87 ) = (  -0.3333333   0.1924501   0.0000000 )
        q(   88 ) = (   0.3333333  -0.1924501  -0.0000000 )


     ===================================================================
     irreducible q point #   28
     ===================================================================

     Symmetries of small group of q:  1

     Number of q in the star =    2
     List of q in the star:
          1   0.333333333   0.288675135   0.000000000
          2  -0.333333333   0.288675135   0.000000000
     In addition there is the -q list: 
          1  -0.333333333  -0.288675135  -0.000000000
          2   0.333333333  -0.288675135  -0.000000000

        q(   89 ) = (   0.3333333   0.2886751   0.0000000 )

        q(   90 ) = (  -0.3333333  -0.2886751  -0.0000000 )
        q(   91 ) = (  -0.3333333   0.2886751   0.0000000 )
        q(   92 ) = (   0.3333333  -0.2886751  -0.0000000 )


     ===================================================================
     irreducible q point #   29
     ===================================================================

     Symmetries of small group of q:  1

     Number of q in the star =    2
     List of q in the star:
          1   0.333333333   0.384900179   0.000000000
          2  -0.333333333   0.384900179   0.000000000
     In addition there is the -q list: 
          1  -0.333333333  -0.384900179  -0.000000000
          2   0.333333333  -0.384900179  -0.000000000

        q(   93 ) = (   0.3333333   0.3849002   0.0000000 )

        q(   94 ) = (  -0.3333333  -0.3849002  -0.0000000 )
        q(   95 ) = (  -0.3333333   0.3849002   0.0000000 )
        q(   96 ) = (   0.3333333  -0.3849002  -0.0000000 )


     ===================================================================
     irreducible q point #   30
     ===================================================================

     Symmetries of small group of q:  1

     Number of q in the star =    2
     List of q in the star:
          1   0.333333333   0.481125224   0.000000000
          2  -0.333333333   0.481125224   0.000000000
     In addition there is the -q list: 
          1  -0.333333333  -0.481125224  -0.000000000
          2   0.333333333  -0.481125224  -0.000000000

        q(   97 ) = (   0.3333333   0.4811252   0.0000000 )

        q(   98 ) = (  -0.3333333  -0.4811252  -0.0000000 )
        q(   99 ) = (  -0.3333333   0.4811252   0.0000000 )
        q(  100 ) = (   0.3333333  -0.4811252  -0.0000000 )


     ===================================================================
     irreducible q point #   31
     ===================================================================

     Symmetries of small group of q:  1

     Number of q in the star =    2
     List of q in the star:
          1   0.333333333   0.577350269   0.000000000
          2  -0.333333333   0.577350269   0.000000000

        q(  101 ) = (   0.3333333   0.5773503   0.0000000 )
        q(  102 ) = (  -0.3333333   0.5773503   0.0000000 )


     ===================================================================
     irreducible q point #   32
     ===================================================================

     Symmetries of small group of q:  1

     Number of q in the star =    2
     List of q in the star:
          1   0.333333333  -0.096225045   0.000000000
          2  -0.333333333  -0.096225045   0.000000000
     In addition there is the -q list: 
          1  -0.333333333   0.096225045  -0.000000000
          2   0.333333333   0.096225045  -0.000000000

        q(  103 ) = (   0.3333333  -0.0962250   0.0000000 )

        q(  104 ) = (  -0.3333333   0.0962250  -0.0000000 )
        q(  105 ) = (  -0.3333333  -0.0962250   0.0000000 )
        q(  106 ) = (   0.3333333   0.0962250  -0.0000000 )


     ===================================================================
     irreducible q point #   33
     ===================================================================

     Symmetries of small group of q:  1

     Number of q in the star =    2
     List of q in the star:
          1   0.333333333   0.000000000   0.000000000
          2  -0.333333333   0.000000000   0.000000000

        q(  107 ) = (   0.3333333   0.0000000   0.0000000 )
        q(  108 ) = (  -0.3333333   0.0000000   0.0000000 )


     ===================================================================
     irreducible q point #   34
     ===================================================================

     Symmetries of small group of q:  1

     Number of q in the star =    2
     List of q in the star:
          1   0.416666667   0.240562612   0.000000000
          2  -0.416666667   0.240562612   0.000000000
     In addition there is the -q list: 
          1  -0.416666667  -0.240562612  -0.000000000
          2   0.416666667  -0.240562612  -0.000000000

        q(  109 ) = (   0.4166667   0.2405626   0.0000000 )

        q(  110 ) = (  -0.4166667  -0.2405626  -0.0000000 )
        q(  111 ) = (  -0.4166667   0.2405626   0.0000000 )
        q(  112 ) = (   0.4166667  -0.2405626  -0.0000000 )


     ===================================================================
     irreducible q point #   35
     ===================================================================

     Symmetries of small group of q:  1

     Number of q in the star =    2
     List of q in the star:
          1   0.416666667   0.336787657   0.000000000
          2  -0.416666667   0.336787657   0.000000000
     In addition there is the -q list: 
          1  -0.416666667  -0.336787657  -0.000000000
          2   0.416666667  -0.336787657  -0.000000000

        q(  113 ) = (   0.4166667   0.3367877   0.0000000 )

        q(  114 ) = (  -0.4166667  -0.3367877  -0.0000000 )
        q(  115 ) = (  -0.4166667   0.3367877   0.0000000 )
        q(  116 ) = (   0.4166667  -0.3367877  -0.0000000 )


     ===================================================================
     irreducible q point #   36
     ===================================================================

     Symmetries of small group of q:  1

     Number of q in the star =    2
     List of q in the star:
          1   0.416666667   0.433012702   0.000000000
          2  -0.416666667   0.433012702   0.000000000
     In addition there is the -q list: 
          1  -0.416666667  -0.433012702  -0.000000000
          2   0.416666667  -0.433012702  -0.000000000

        q(  117 ) = (   0.4166667   0.4330127   0.0000000 )

        q(  118 ) = (  -0.4166667  -0.4330127  -0.0000000 )
        q(  119 ) = (  -0.4166667   0.4330127   0.0000000 )
        q(  120 ) = (   0.4166667  -0.4330127  -0.0000000 )


     ===================================================================
     irreducible q point #   37
     ===================================================================

     Symmetries of small group of q:  1

     Number of q in the star =    2
     List of q in the star:
          1   0.416666667   0.529237747   0.000000000
          2  -0.416666667   0.529237747   0.000000000
     In addition there is the -q list: 
          1  -0.416666667  -0.529237747  -0.000000000
          2   0.416666667  -0.529237747  -0.000000000

        q(  121 ) = (   0.4166667   0.5292377   0.0000000 )

        q(  122 ) = (  -0.4166667  -0.5292377  -0.0000000 )
        q(  123 ) = (  -0.4166667   0.5292377   0.0000000 )
        q(  124 ) = (   0.4166667  -0.5292377  -0.0000000 )


     ===================================================================
     irreducible q point #   38
     ===================================================================

     Symmetries of small group of q:  1

     Number of q in the star =    2
     List of q in the star:
          1   0.416666667  -0.144337567   0.000000000
          2  -0.416666667  -0.144337567   0.000000000
     In addition there is the -q list: 
          1  -0.416666667   0.144337567  -0.000000000
          2   0.416666667   0.144337567  -0.000000000

        q(  125 ) = (   0.4166667  -0.1443376   0.0000000 )

        q(  126 ) = (  -0.4166667   0.1443376  -0.0000000 )
        q(  127 ) = (  -0.4166667  -0.1443376   0.0000000 )
        q(  128 ) = (   0.4166667   0.1443376  -0.0000000 )


     ===================================================================
     irreducible q point #   39
     ===================================================================

     Symmetries of small group of q:  1

     Number of q in the star =    2
     List of q in the star:
          1   0.416666667  -0.048112522   0.000000000
          2  -0.416666667  -0.048112522   0.000000000
     In addition there is the -q list: 
          1  -0.416666667   0.048112522  -0.000000000
          2   0.416666667   0.048112522  -0.000000000

        q(  129 ) = (   0.4166667  -0.0481125   0.0000000 )

        q(  130 ) = (  -0.4166667   0.0481125  -0.0000000 )
        q(  131 ) = (  -0.4166667  -0.0481125   0.0000000 )
        q(  132 ) = (   0.4166667   0.0481125  -0.0000000 )


     ===================================================================
     irreducible q point #   40
     ===================================================================

     Symmetries of small group of q:  1
          in addition sym. q -> -q+G:

     Number of q in the star =    2
     List of q in the star:
          1  -0.500000000  -0.288675135   0.000000000
          2   0.500000000  -0.288675135   0.000000000

        q(  133 ) = (  -0.5000000  -0.2886751   0.0000000 )
        q(  134 ) = (   0.5000000  -0.2886751   0.0000000 )


     ===================================================================
     irreducible q point #   41
     ===================================================================

     Symmetries of small group of q:  1

     Number of q in the star =    2
     List of q in the star:
          1  -0.500000000  -0.192450090   0.000000000
          2   0.500000000  -0.192450090   0.000000000
     In addition there is the -q list: 
          1   0.500000000   0.192450090  -0.000000000
          2  -0.500000000   0.192450090  -0.000000000

        q(  135 ) = (  -0.5000000  -0.1924501   0.0000000 )

        q(  136 ) = (   0.5000000   0.1924501  -0.0000000 )
        q(  137 ) = (   0.5000000  -0.1924501   0.0000000 )
        q(  138 ) = (  -0.5000000   0.1924501  -0.0000000 )


     ===================================================================
     irreducible q point #   42
     ===================================================================

     Symmetries of small group of q:  1

     Number of q in the star =    2
     List of q in the star:
          1  -0.500000000  -0.096225045   0.000000000
          2   0.500000000  -0.096225045   0.000000000
     In addition there is the -q list: 
          1   0.500000000   0.096225045  -0.000000000
          2  -0.500000000   0.096225045  -0.000000000

        q(  139 ) = (  -0.5000000  -0.0962250   0.0000000 )

        q(  140 ) = (   0.5000000   0.0962250  -0.0000000 )
        q(  141 ) = (   0.5000000  -0.0962250   0.0000000 )
        q(  142 ) = (  -0.5000000   0.0962250  -0.0000000 )


     ===================================================================
     irreducible q point #   43
     ===================================================================

     Symmetries of small group of q:  1

     Number of q in the star =    2
     List of q in the star:
          1  -0.500000000   0.000000000   0.000000000
          2   0.500000000   0.000000000   0.000000000

        q(  143 ) = (  -0.5000000   0.0000000   0.0000000 )
        q(  144 ) = (   0.5000000   0.0000000   0.0000000 )

     Writing epmatq on .epb files


     The .epb files have been correctly written

     Use zone-centred Wigner-Seitz cells 
     Number of WS vectors for electrons      157
     Number of WS vectors for phonons      157
     Number of WS vectors for electron-phonon      157
     Maximum number of cores for efficient parallelization     1884
     Results may improve by using use_ws == .TRUE. 

     Velocity matrix elements calculated
 
 
     Bloch2wane:          1 /        144
     Bloch2wane:          2 /        144
     Bloch2wane:          3 /        144
     Bloch2wane:          4 /        144
     Bloch2wane:          5 /        144
     Bloch2wane:          6 /        144
     Bloch2wane:          7 /        144
     Bloch2wane:          8 /        144
     Bloch2wane:          9 /        144
     Bloch2wane:         10 /        144
     Bloch2wane:         11 /        144
     Bloch2wane:         12 /        144
     Bloch2wane:         13 /        144
     Bloch2wane:         14 /        144
     Bloch2wane:         15 /        144
     Bloch2wane:         16 /        144
     Bloch2wane:         17 /        144
     Bloch2wane:         18 /        144
     Bloch2wane:         19 /        144
     Bloch2wane:         20 /        144
     Bloch2wane:         21 /        144
     Bloch2wane:         22 /        144
     Bloch2wane:         23 /        144
     Bloch2wane:         24 /        144
     Bloch2wane:         25 /        144
     Bloch2wane:         26 /        144
     Bloch2wane:         27 /        144
     Bloch2wane:         28 /        144
     Bloch2wane:         29 /        144
     Bloch2wane:         30 /        144
     Bloch2wane:         31 /        144
     Bloch2wane:         32 /        144
     Bloch2wane:         33 /        144
     Bloch2wane:         34 /        144
     Bloch2wane:         35 /        144
     Bloch2wane:         36 /        144
     Bloch2wane:         37 /        144
     Bloch2wane:         38 /        144
     Bloch2wane:         39 /        144
     Bloch2wane:         40 /        144
     Bloch2wane:         41 /        144
     Bloch2wane:         42 /        144
     Bloch2wane:         43 /        144
     Bloch2wane:         44 /        144
     Bloch2wane:         45 /        144
     Bloch2wane:         46 /        144
     Bloch2wane:         47 /        144
     Bloch2wane:         48 /        144
     Bloch2wane:         49 /        144
     Bloch2wane:         50 /        144
     Bloch2wane:         51 /        144
     Bloch2wane:         52 /        144
     Bloch2wane:         53 /        144
     Bloch2wane:         54 /        144
     Bloch2wane:         55 /        144
     Bloch2wane:         56 /        144
     Bloch2wane:         57 /        144
     Bloch2wane:         58 /        144
     Bloch2wane:         59 /        144
     Bloch2wane:         60 /        144
     Bloch2wane:         61 /        144
     Bloch2wane:         62 /        144
     Bloch2wane:         63 /        144
     Bloch2wane:         64 /        144
     Bloch2wane:         65 /        144
     Bloch2wane:         66 /        144
     Bloch2wane:         67 /        144
     Bloch2wane:         68 /        144
     Bloch2wane:         69 /        144
     Bloch2wane:         70 /        144
     Bloch2wane:         71 /        144
     Bloch2wane:         72 /        144
     Bloch2wane:         73 /        144
     Bloch2wane:         74 /        144
     Bloch2wane:         75 /        144
     Bloch2wane:         76 /        144
     Bloch2wane:         77 /        144
     Bloch2wane:         78 /        144
     Bloch2wane:         79 /        144
     Bloch2wane:         80 /        144
     Bloch2wane:         81 /        144
     Bloch2wane:         82 /        144
     Bloch2wane:         83 /        144
     Bloch2wane:         84 /        144
     Bloch2wane:         85 /        144
     Bloch2wane:         86 /        144
     Bloch2wane:         87 /        144
     Bloch2wane:         88 /        144
     Bloch2wane:         89 /        144
     Bloch2wane:         90 /        144
     Bloch2wane:         91 /        144
     Bloch2wane:         92 /        144
     Bloch2wane:         93 /        144
     Bloch2wane:         94 /        144
     Bloch2wane:         95 /        144
     Bloch2wane:         96 /        144
     Bloch2wane:         97 /        144
     Bloch2wane:         98 /        144
     Bloch2wane:         99 /        144
     Bloch2wane:        100 /        144
     Bloch2wane:        101 /        144
     Bloch2wane:        102 /        144
     Bloch2wane:        103 /        144
     Bloch2wane:        104 /        144
     Bloch2wane:        105 /        144
     Bloch2wane:        106 /        144
     Bloch2wane:        107 /        144
     Bloch2wane:        108 /        144
     Bloch2wane:        109 /        144
     Bloch2wane:        110 /        144
     Bloch2wane:        111 /        144
     Bloch2wane:        112 /        144
     Bloch2wane:        113 /        144
     Bloch2wane:        114 /        144
     Bloch2wane:        115 /        144
     Bloch2wane:        116 /        144
     Bloch2wane:        117 /        144
     Bloch2wane:        118 /        144
     Bloch2wane:        119 /        144
     Bloch2wane:        120 /        144
     Bloch2wane:        121 /        144
     Bloch2wane:        122 /        144
     Bloch2wane:        123 /        144
     Bloch2wane:        124 /        144
     Bloch2wane:        125 /        144
     Bloch2wane:        126 /        144
     Bloch2wane:        127 /        144
     Bloch2wane:        128 /        144
     Bloch2wane:        129 /        144
     Bloch2wane:        130 /        144
     Bloch2wane:        131 /        144
     Bloch2wane:        132 /        144
     Bloch2wane:        133 /        144
     Bloch2wane:        134 /        144
     Bloch2wane:        135 /        144
     Bloch2wane:        136 /        144
     Bloch2wane:        137 /        144
     Bloch2wane:        138 /        144
     Bloch2wane:        139 /        144
     Bloch2wane:        140 /        144
     Bloch2wane:        141 /        144
     Bloch2wane:        142 /        144
     Bloch2wane:        143 /        144
     Bloch2wane:        144 /        144
 
     Bloch2wanp:          1 /         20
     Bloch2wanp:          2 /         20
     Bloch2wanp:          3 /         20
     Bloch2wanp:          4 /         20
     Bloch2wanp:          5 /         20
     Bloch2wanp:          6 /         20
     Bloch2wanp:          7 /         20
     Bloch2wanp:          8 /         20
     Bloch2wanp:          9 /         20
     Bloch2wanp:         10 /         20
     Bloch2wanp:         11 /         20
     Bloch2wanp:         12 /         20
     Bloch2wanp:         13 /         20
     Bloch2wanp:         14 /         20
     Bloch2wanp:         15 /         20
     Bloch2wanp:         16 /         20
     Bloch2wanp:         17 /         20
     Bloch2wanp:         18 /         20
     Bloch2wanp:         19 /         20
     Bloch2wanp:         20 /         20

     Writing Hamiltonian, Dynamical matrix and EP vertex in Wann rep to file

     ===================================================================
     Memory usage:  VmHWM =       158Mb
                   VmPeak =       391Mb
     ===================================================================
     
     Using uniform q-mesh:  156 156   1
     Size of q point mesh for interpolation:      24336
     Using uniform MP k-mesh:  156 156   1
     Size of k point mesh for interpolation:      24492
     Max number of k points per pool:             3062

     Fermi energy coarse grid =  -2.725254 eV

     Fermi energy is calculated from the fine k-mesh: Ef =  -0.943846 eV

     Warning: check if difference with Fermi level fine grid makes sense

     ===================================================================

              ibndmin =     4  ebndmin =    -3.943 eV
              ibndmax =     7  ebndmax =     2.056 eV


     Number of ep-matrix elements per pool :       293952 ~=    2.24 Mb (@ 8 bytes/ DP)
     Number selected, total            100            111
     Number selected, total            200            211
     Number selected, total            300            322
     Number selected, total            400            432
     Number selected, total            500            532
     Number selected, total            600            642
     Number selected, total            700            752
     Number selected, total            800            852
     Number selected, total            900            961
     Number selected, total           1000           1070
     Number selected, total           1100           1179
     Number selected, total           1200           1279
     Number selected, total           1300           1388
     Number selected, total           1400           1496
     Number selected, total           1500           1596
     Number selected, total           1600           1704
     Number selected, total           1700           1813
     Number selected, total           1800           1913
     Number selected, total           1900           2022
     Number selected, total           2000           2131
     Number selected, total           2100           2231
     Number selected, total           2200           2340
     Number selected, total           2300           2450
     Number selected, total           2400           2550
     Number selected, total           2500           2660
     Number selected, total           2600           2771
     Number selected, total           2700           2871
     Number selected, total           2800           2982
     Number selected, total           2900           3094
     Number selected, total           3000           3207
     Number selected, total           3100           3307
     Number selected, total           3200           3428
     Number selected, total           3300           3549
     Number selected, total           3400           3671
     Number selected, total           3500           3771
     Number selected, total           3600           3893
     Number selected, total           3700           4015
     Number selected, total           3800           4115
     Number selected, total           3900           4237
     Number selected, total           4000           4361
     Number selected, total           4100           4485
     Number selected, total           4200           4610
     Number selected, total           4300           4710
     Number selected, total           4400           4836
     Number selected, total           4500           4964
     Number selected, total           4600           5093
     Number selected, total           4700           5193
     Number selected, total           4800           5325
     Number selected, total           4900           5460
     Number selected, total           5000           5608
     Number selected, total           5100           5758
     Number selected, total           5200           5909
     Number selected, total           5300           6062
     Number selected, total           5400           6216
     Number selected, total           5500           6373
     Number selected, total           5600          11718
     Number selected, total           5700          12202
     Number selected, total           5800          12397
     Number selected, total           5900          12665
     Number selected, total           6000          12845
     Number selected, total           6100          13020
     Number selected, total           6200          13257
     Number selected, total           6300          13421
     Number selected, total           6400          13582
     Number selected, total           6500          13742
     Number selected, total           6600          13899
     Number selected, total           6700          14051
     Number selected, total           6800          14198
     Number selected, total           6900          14342
     Number selected, total           7000          14442
     Number selected, total           7100          14583
     Number selected, total           7200          14721
     Number selected, total           7300          14858
     Number selected, total           7400          14994
     Number selected, total           7500          15127
     Number selected, total           7600          15259
     Number selected, total           7700          15359
     Number selected, total           7800          15490
     Number selected, total           7900          15620
     Number selected, total           8000          15749
     Number selected, total           8100          15877
     Number selected, total           8200          15977
     Number selected, total           8300          16104
     Number selected, total           8400          16230
     Number selected, total           8500          16355
     Number selected, total           8600          16455
     Number selected, total           8700          16579
     Number selected, total           8800          16702
     Number selected, total           8900          16824
     Number selected, total           9000          16924
     Number selected, total           9100          17045
     Number selected, total           9200          17165
     Number selected, total           9300          17284
     Number selected, total           9400          17384
     Number selected, total           9500          17502
     Number selected, total           9600          17619
     Number selected, total           9700          17719
     Number selected, total           9800          17835
     Number selected, total           9900          17950
     Number selected, total          10000          18064
     Number selected, total          10100          18164
     Number selected, total          10200          18277
     Number selected, total          10300          18389
     Number selected, total          10400          18489
     Number selected, total          10500          18600
     Number selected, total          10600          18710
     Number selected, total          10700          18810
     Number selected, total          10800          18919
     Number selected, total          10900          19027
     Number selected, total          11000          19134
     Number selected, total          11100          19234
     Number selected, total          11200          19340
     Number selected, total          11300          19445
     Number selected, total          11400          19545
     Number selected, total          11500          19649
     Number selected, total          11600          19752
     Number selected, total          11700          19852
     Number selected, total          11800          19954
     Number selected, total          11900          20054
     Number selected, total          12000          20155
     Number selected, total          12100          20257
     Number selected, total          12200          20357
     Number selected, total          12300          20458
     Number selected, total          12400          20558
     Number selected, total          12500          20658
     Number selected, total          12600          20758
     Number selected, total          12700          20858
     Number selected, total          12800          20958
     Number selected, total          12900          21058
     Number selected, total          13000          21158
     Number selected, total          13100          21258
     Number selected, total          13200          21358
     Number selected, total          13300          21458
     Number selected, total          13400          21558
     Number selected, total          13500          21658
     Number selected, total          13600          21758
     Number selected, total          13700          21860
     Number selected, total          13800          21962
     Number selected, total          13900          22062
     Number selected, total          14000          22166
     Number selected, total          14100          22271
     Number selected, total          14200          22371
     Number selected, total          14300          22477
     Number selected, total          14400          22583
     Number selected, total          14500          22683
     Number selected, total          14600          22790
     Number selected, total          14700          22896
     Number selected, total          14800          22996
     Number selected, total          14900          23103
     Number selected, total          15000          23210
     Number selected, total          15100          23310
     Number selected, total          15200          23418
     Number selected, total          15300          23526
     Number selected, total          15400          23626
     Number selected, total          15500          23735
     Number selected, total          15600          23844
     Number selected, total          15700          23954
     Number selected, total          15800          24054
     Number selected, total          15900          24164
     Number selected, total          16000          24275
     We only need to compute    16061 q-points
      
     Valence band maximum    =  -2.576024 eV
     Conduction band minimum =   0.596595 eV

     Temperature  300.000 K
     Mobility VB Fermi level =  -2.136296 eV

     ===================================================================
     Scattering rate for IBTE
     ===================================================================

     Restart and restart_step inputs deactivated (restart point at every q-points).
     No intermediate mobility will be shown.

     Fermi Surface thickness =   3.000000 eV
     This is computed with respect to the fine Fermi level  -0.943846 eV
     Only states between  -3.943846 eV and   2.056154 eV will be included

     Save matrix elements larger than threshold:   0.105531381609E-25
      
     Progression iq (fine) =        100/     16061
     Progression iq (fine) =        200/     16061
     Progression iq (fine) =        300/     16061
     Progression iq (fine) =        400/     16061
     Progression iq (fine) =        500/     16061
     Progression iq (fine) =        600/     16061
     Progression iq (fine) =        700/     16061
     Progression iq (fine) =        800/     16061
     Progression iq (fine) =        900/     16061
     Progression iq (fine) =       1000/     16061
     Progression iq (fine) =       1100/     16061
     Progression iq (fine) =       1200/     16061
     Progression iq (fine) =       1300/     16061
     Progression iq (fine) =       1400/     16061
     Progression iq (fine) =       1500/     16061
     Progression iq (fine) =       1600/     16061
     Progression iq (fine) =       1700/     16061
     Progression iq (fine) =       1800/     16061
     Progression iq (fine) =       1900/     16061
     Progression iq (fine) =       2000/     16061
     Progression iq (fine) =       2100/     16061
     Progression iq (fine) =       2200/     16061
     Progression iq (fine) =       2300/     16061
     Progression iq (fine) =       2400/     16061
     Progression iq (fine) =       2500/     16061
     Progression iq (fine) =       2600/     16061
     Progression iq (fine) =       2700/     16061
     Progression iq (fine) =       2800/     16061
     Progression iq (fine) =       2900/     16061
     Progression iq (fine) =       3000/     16061
     Progression iq (fine) =       3100/     16061
     Progression iq (fine) =       3200/     16061
     Progression iq (fine) =       3300/     16061
     Progression iq (fine) =       3400/     16061
     Progression iq (fine) =       3500/     16061
     Progression iq (fine) =       3600/     16061
     Progression iq (fine) =       3700/     16061
     Progression iq (fine) =       3800/     16061
     Progression iq (fine) =       3900/     16061
     Progression iq (fine) =       4000/     16061
     Progression iq (fine) =       4100/     16061
     Progression iq (fine) =       4200/     16061
     Progression iq (fine) =       4300/     16061
     Progression iq (fine) =       4400/     16061
     Progression iq (fine) =       4500/     16061
     Progression iq (fine) =       4600/     16061
     Progression iq (fine) =       4700/     16061
     Progression iq (fine) =       4800/     16061
     Progression iq (fine) =       4900/     16061
     Progression iq (fine) =       5000/     16061
     Progression iq (fine) =       5100/     16061
     Progression iq (fine) =       5200/     16061
     Progression iq (fine) =       5300/     16061
     Progression iq (fine) =       5400/     16061
     Progression iq (fine) =       5500/     16061
     Progression iq (fine) =       5600/     16061
     Progression iq (fine) =       5700/     16061
     Progression iq (fine) =       5800/     16061
     Progression iq (fine) =       5900/     16061
     Progression iq (fine) =       6000/     16061
     Progression iq (fine) =       6100/     16061
     Progression iq (fine) =       6200/     16061
     Progression iq (fine) =       6300/     16061
     Progression iq (fine) =       6400/     16061
     Progression iq (fine) =       6500/     16061
     Progression iq (fine) =       6600/     16061
     Progression iq (fine) =       6700/     16061
     Progression iq (fine) =       6800/     16061
     Progression iq (fine) =       6900/     16061
     Progression iq (fine) =       7000/     16061
     Progression iq (fine) =       7100/     16061
     Progression iq (fine) =       7200/     16061
     Progression iq (fine) =       7300/     16061
     Progression iq (fine) =       7400/     16061
     Progression iq (fine) =       7500/     16061
     Progression iq (fine) =       7600/     16061
     Progression iq (fine) =       7700/     16061
     Progression iq (fine) =       7800/     16061
     Progression iq (fine) =       7900/     16061
     Progression iq (fine) =       8000/     16061
     Progression iq (fine) =       8100/     16061
     Progression iq (fine) =       8200/     16061
     Progression iq (fine) =       8300/     16061
     Progression iq (fine) =       8400/     16061
     Progression iq (fine) =       8500/     16061
     Progression iq (fine) =       8600/     16061
     Progression iq (fine) =       8700/     16061
     Progression iq (fine) =       8800/     16061
     Progression iq (fine) =       8900/     16061
     Progression iq (fine) =       9000/     16061
     Progression iq (fine) =       9100/     16061
     Progression iq (fine) =       9200/     16061
     Progression iq (fine) =       9300/     16061
     Progression iq (fine) =       9400/     16061
     Progression iq (fine) =       9500/     16061
     Progression iq (fine) =       9600/     16061
     Progression iq (fine) =       9700/     16061
     Progression iq (fine) =       9800/     16061
     Progression iq (fine) =       9900/     16061
     Progression iq (fine) =      10000/     16061
     Progression iq (fine) =      10100/     16061
     Progression iq (fine) =      10200/     16061
     Progression iq (fine) =      10300/     16061
     Progression iq (fine) =      10400/     16061
     Progression iq (fine) =      10500/     16061
     Progression iq (fine) =      10600/     16061
     Progression iq (fine) =      10700/     16061
     Progression iq (fine) =      10800/     16061
     Progression iq (fine) =      10900/     16061
     Progression iq (fine) =      11000/     16061
     Progression iq (fine) =      11100/     16061
     Progression iq (fine) =      11200/     16061
     Progression iq (fine) =      11300/     16061
     Progression iq (fine) =      11400/     16061
     Progression iq (fine) =      11500/     16061
     Progression iq (fine) =      11600/     16061
     Progression iq (fine) =      11700/     16061
     Progression iq (fine) =      11800/     16061
     Progression iq (fine) =      11900/     16061
     Progression iq (fine) =      12000/     16061
     Progression iq (fine) =      12100/     16061
     Progression iq (fine) =      12200/     16061
     Progression iq (fine) =      12300/     16061
     Progression iq (fine) =      12400/     16061
     Progression iq (fine) =      12500/     16061
     Progression iq (fine) =      12600/     16061
     Progression iq (fine) =      12700/     16061
     Progression iq (fine) =      12800/     16061
     Progression iq (fine) =      12900/     16061
     Progression iq (fine) =      13000/     16061
     Progression iq (fine) =      13100/     16061
     Progression iq (fine) =      13200/     16061
     Progression iq (fine) =      13300/     16061
     Progression iq (fine) =      13400/     16061
     Progression iq (fine) =      13500/     16061
     Progression iq (fine) =      13600/     16061
     Progression iq (fine) =      13700/     16061
     Progression iq (fine) =      13800/     16061
     Progression iq (fine) =      13900/     16061
     Progression iq (fine) =      14000/     16061
     Progression iq (fine) =      14100/     16061
     Progression iq (fine) =      14200/     16061
     Progression iq (fine) =      14300/     16061
     Progression iq (fine) =      14400/     16061
     Progression iq (fine) =      14500/     16061
     Progression iq (fine) =      14600/     16061
     Progression iq (fine) =      14700/     16061
     Progression iq (fine) =      14800/     16061
     Progression iq (fine) =      14900/     16061
     Progression iq (fine) =      15000/     16061
     Progression iq (fine) =      15100/     16061
     Progression iq (fine) =      15200/     16061
     Progression iq (fine) =      15300/     16061
     Progression iq (fine) =      15400/     16061
     Progression iq (fine) =      15500/     16061
     Progression iq (fine) =      15600/     16061
     Progression iq (fine) =      15700/     16061
     Progression iq (fine) =      15800/     16061
     Progression iq (fine) =      15900/     16061
     Progression iq (fine) =      16000/     16061
      300.000     -2.1363       0.100000E+13
      
     epmatkqread automatically changed to .TRUE. as all scattering have been computed.
      
     ===================================================================
     Memory usage:  VmHWM =       189Mb
                   VmPeak =       421Mb
     ===================================================================

     Number of elements per core      54684
     Symmetry mapping finished
      
     =============================================================================================
     BTE in the self-energy relaxation time approximation (SERTA)
     =============================================================================================

     =============================================================================================
       Temp     Fermi   Hole density  Population SR                  Hole mobility 
        [K]      [eV]     [cm^-3]      [h per cell]                    [cm^2/Vs]
     =============================================================================================

      300.000  -2.1363   0.10000E+13  -0.30452E-06    0.927326E+02    0.000000E+00    0.000000E+00
                                                      0.000000E+00    0.102664E+03    0.000000E+00
                                                      0.000000E+00    0.000000E+00    0.000000E+00
      
     =============================================================================================
     Start solving iterative Boltzmann Transport Equation
     =============================================================================================

     Iteration number:         1

     =============================================================================================
       Temp     Fermi   Hole density  Population SR                  Hole mobility 
        [K]      [eV]     [cm^-3]      [h per cell]                    [cm^2/Vs]
     =============================================================================================

      300.000  -2.1363   0.10000E+13  -0.95174E-06    0.861167E+02    0.000000E+00    0.000000E+00
                                                      0.000000E+00    0.123522E+03    0.000000E+00
                                                      0.000000E+00    0.000000E+00    0.000000E+00

                                                      0.123522E+03    Max error
     Iteration number:         2

     =============================================================================================
       Temp     Fermi   Hole density  Population SR                  Hole mobility 
        [K]      [eV]     [cm^-3]      [h per cell]                    [cm^2/Vs]
     =============================================================================================

[...]

      300.000  -2.1363   0.10000E+13  -0.99850+271    0.841060E+02    0.000000E+00    0.000000E+00
                                                      0.000000E+00    0.976837+278    0.000000E+00
                                                      0.000000E+00    0.000000E+00    0.000000E+00

                                                      0.431137+278    Max error
     Iteration number:      1097

     =============================================================================================
       Temp     Fermi   Hole density  Population SR                  Hole mobility 
        [K]      [eV]     [cm^-3]      [h per cell]                    [cm^2/Vs]
     =============================================================================================

      300.000  -2.1363   0.10000E+13  -0.17874+272    0.841060E+02    0.000000E+00    0.000000E+00
                                                      0.000000E+00    0.174860+279    0.000000E+00
                                                      0.000000E+00    0.000000E+00    0.000000E+00

                                                      0.771763+278    Max error
     Iteration number:      1098

     =============================================================================================
       Temp     Fermi   Hole density  Population SR                  Hole mobility 
        [K]      [eV]     [cm^-3]      [h per cell]                    [cm^2/Vs]
     =============================================================================================

      300.000  -2.1363   0.10000E+13  -0.31995+272    0.841060E+02    0.000000E+00    0.000000E+00
                                                      0.000000E+00    0.313011+279    0.000000E+00
                                                      0.000000E+00    0.000000E+00    0.000000E+00

                                                      0.138151+279    Max error
     Iteration number:      1099

     =============================================================================================
       Temp     Fermi   Hole density  Population SR                  Hole mobility 
        [K]      [eV]     [cm^-3]      [h per cell]                    [cm^2/Vs]
     =============================================================================================

      300.000  -2.1363   0.10000E+13  -0.57273+272    0.841060E+02    0.000000E+00    0.000000E+00
                                                      0.000000E+00    0.560309+279    0.000000E+00
                                                      0.000000E+00    0.000000E+00    0.000000E+00

                                                      0.247298+279    Max error
     Iteration number:      1100

     =============================================================================================
       Temp     Fermi   Hole density  Population SR                  Hole mobility 
        [K]      [eV]     [cm^-3]      [h per cell]                    [cm^2/Vs]
     =============================================================================================

      300.000  -2.1363   0.10000E+13  -0.10252+273    0.841060E+02    0.000000E+00    0.000000E+00
                                                      0.000000E+00    0.100299+280    0.000000E+00
                                                      0.000000E+00    0.000000E+00    0.000000E+00

                                                      0.442680+279    Max error
     Iteration number:      1101

     =============================================================================================
       Temp     Fermi   Hole density  Population SR                  Hole mobility 
        [K]      [eV]     [cm^-3]      [h per cell]                    [cm^2/Vs]
     =============================================================================================

      300.000  -2.1363   0.10000E+13  -0.18352+273    0.841060E+02    0.000000E+00    0.000000E+00
                                                      0.000000E+00    0.179541+280    0.000000E+00
                                                      0.000000E+00    0.000000E+00    0.000000E+00

                                                      0.792425+279    Max error
     Iteration number:      1102

     =============================================================================================
       Temp     Fermi   Hole density  Population SR                  Hole mobility 
        [K]      [eV]     [cm^-3]      [h per cell]                    [cm^2/Vs]
     =============================================================================================

      300.000  -2.1363   0.10000E+13  -0.32852+273    0.841060E+02    0.000000E+00    0.000000E+00
                                                      0.000000E+00    0.321390+280    0.000000E+00
                                                      0.000000E+00    0.000000E+00    0.000000E+00

                                                      0.141849+280    Max error
     Iteration number:      1103

     =============================================================================================
       Temp     Fermi   Hole density  Population SR                  Hole mobility 
        [K]      [eV]     [cm^-3]      [h per cell]                    [cm^2/Vs]
     =============================================================================================

      300.000  -2.1363   0.10000E+13  -0.58807+273    0.841060E+02    0.000000E+00    0.000000E+00
                                                      0.000000E+00    0.575309+280    0.000000E+00
                                                      0.000000E+00    0.000000E+00    0.000000E+00

                                                      0.253919+280    Max error
     Iteration number:      1104

     =============================================================================================
       Temp     Fermi   Hole density  Population SR                  Hole mobility 
        [K]      [eV]     [cm^-3]      [h per cell]                    [cm^2/Vs]
     =============================================================================================

      300.000  -2.1363   0.10000E+13  -0.10527+274    0.841060E+02    0.000000E+00    0.000000E+00
                                                      0.000000E+00    0.102984+281    0.000000E+00
                                                      0.000000E+00    0.000000E+00    0.000000E+00

                                                      0.454531+280    Max error
     Iteration number:      1105

     =============================================================================================
       Temp     Fermi   Hole density  Population SR                  Hole mobility 
        [K]      [eV]     [cm^-3]      [h per cell]                    [cm^2/Vs]
     =============================================================================================

      300.000  -2.1363   0.10000E+13  -0.18844+274    0.841060E+02    0.000000E+00    0.000000E+00
                                                      0.000000E+00    0.184348+281    0.000000E+00
                                                      0.000000E+00    0.000000E+00    0.000000E+00

                                                      0.813639+280    Max error
     Iteration number:      1106

     =============================================================================================
       Temp     Fermi   Hole density  Population SR                  Hole mobility 
        [K]      [eV]     [cm^-3]      [h per cell]                    [cm^2/Vs]
     =============================================================================================

      300.000  -2.1363   0.10000E+13  -0.33731+274    0.841060E+02    0.000000E+00    0.000000E+00
                                                      0.000000E+00    0.329994+281    0.000000E+00
                                                      0.000000E+00    0.000000E+00    0.000000E+00

                                                      0.145647+281    Max error
     Iteration number:      1107

     =============================================================================================
       Temp     Fermi   Hole density  Population SR                  Hole mobility 
        [K]      [eV]     [cm^-3]      [h per cell]                    [cm^2/Vs]
     =============================================================================================

      300.000  -2.1363   0.10000E+13  -0.60381+274    0.841060E+02    0.000000E+00    0.000000E+00
                                                      0.000000E+00    0.590711+281    0.000000E+00
                                                      0.000000E+00    0.000000E+00    0.000000E+00

                                                      0.260717+281    Max error
     Iteration number:      1108

     =============================================================================================
       Temp     Fermi   Hole density  Population SR                  Hole mobility 
        [K]      [eV]     [cm^-3]      [h per cell]                    [cm^2/Vs]
     =============================================================================================

      300.000  -2.1363   0.10000E+13  -0.10809+275    0.841060E+02    0.000000E+00    0.000000E+00
                                                      0.000000E+00    0.105741+282    0.000000E+00
                                                      0.000000E+00    0.000000E+00    0.000000E+00

                                                      0.466699+281    Max error
     Iteration number:      1109

     =============================================================================================
       Temp     Fermi   Hole density  Population SR                  Hole mobility 
        [K]      [eV]     [cm^-3]      [h per cell]                    [cm^2/Vs]
     =============================================================================================

      300.000  -2.1363   0.10000E+13  -0.19348+275    0.841060E+02    0.000000E+00    0.000000E+00
                                                      0.000000E+00    0.189283+282    0.000000E+00
                                                      0.000000E+00    0.000000E+00    0.000000E+00

                                                      0.835421+281    Max error
     Iteration number:      1110

     =============================================================================================
       Temp     Fermi   Hole density  Population SR                  Hole mobility 
        [K]      [eV]     [cm^-3]      [h per cell]                    [cm^2/Vs]
     =============================================================================================

      300.000  -2.1363   0.10000E+13  -0.34634+275    0.841060E+02    0.000000E+00    0.000000E+00
                                                      0.000000E+00    0.338829+282    0.000000E+00
                                                      0.000000E+00    0.000000E+00    0.000000E+00

                                                      0.149546+282    Max error
     Iteration number:      1111

     =============================================================================================
       Temp     Fermi   Hole density  Population SR                  Hole mobility 
        [K]      [eV]     [cm^-3]      [h per cell]                    [cm^2/Vs]
     =============================================================================================

      300.000  -2.1363   0.10000E+13  -0.61997+275    0.841060E+02    0.000000E+00    0.000000E+00
                                                      0.000000E+00    0.606525+282    0.000000E+00
                                                      0.000000E+00    0.000000E+00    0.000000E+00

                                                      0.267696+282    Max error
     Iteration number:      1112

     =============================================================================================
       Temp     Fermi   Hole density  Population SR                  Hole mobility 
        [K]      [eV]     [cm^-3]      [h per cell]                    [cm^2/Vs]
     =============================================================================================

      300.000  -2.1363   0.10000E+13  -0.11098+276    0.841060E+02    0.000000E+00    0.000000E+00
                                                      0.000000E+00    0.108572+283    0.000000E+00
                                                      0.000000E+00    0.000000E+00    0.000000E+00

                                                      0.479193+282    Max error
     Iteration number:      1113

     =============================================================================================
       Temp     Fermi   Hole density  Population SR                  Hole mobility 
        [K]      [eV]     [cm^-3]      [h per cell]                    [cm^2/Vs]
     =============================================================================================

      300.000  -2.1363   0.10000E+13  -0.19866+276    0.841060E+02    0.000000E+00    0.000000E+00
                                                      0.000000E+00    0.194351+283    0.000000E+00
                                                      0.000000E+00    0.000000E+00    0.000000E+00

                                                      0.857787+282    Max error
     Iteration number:      1114

     =============================================================================================
       Temp     Fermi   Hole density  Population SR                  Hole mobility 
        [K]      [eV]     [cm^-3]      [h per cell]                    [cm^2/Vs]
     =============================================================================================

      300.000  -2.1363   0.10000E+13  -0.35561+276    0.841060E+02    0.000000E+00    0.000000E+00
                                                      0.000000E+00    0.347900+283    0.000000E+00
                                                      0.000000E+00    0.000000E+00    0.000000E+00

                                                      0.153549+283    Max error
     Iteration number:      1115

     =============================================================================================
       Temp     Fermi   Hole density  Population SR                  Hole mobility 
        [K]      [eV]     [cm^-3]      [h per cell]                    [cm^2/Vs]
     =============================================================================================

      300.000  -2.1363   0.10000E+13  -0.63657+276    0.841060E+02    0.000000E+00    0.000000E+00
                                                      0.000000E+00    0.622763+283    0.000000E+00
                                                      0.000000E+00    0.000000E+00    0.000000E+00

                                                      0.274863+283    Max error
     Iteration number:      1116

     =============================================================================================
       Temp     Fermi   Hole density  Population SR                  Hole mobility 
        [K]      [eV]     [cm^-3]      [h per cell]                    [cm^2/Vs]
     =============================================================================================

      300.000  -2.1363   0.10000E+13  -0.11395+277    0.841060E+02    0.000000E+00    0.000000E+00
                                                      0.000000E+00    0.111478+284    0.000000E+00
                                                      0.000000E+00    0.000000E+00    0.000000E+00

                                                      0.492022+283    Max error
     Iteration number:      1117

     =============================================================================================
       Temp     Fermi   Hole density  Population SR                  Hole mobility 
        [K]      [eV]     [cm^-3]      [h per cell]                    [cm^2/Vs]
     =============================================================================================

      300.000  -2.1363   0.10000E+13  -0.20398+277    0.841060E+02    0.000000E+00    0.000000E+00
                                                      0.000000E+00    0.199554+284    0.000000E+00
                                                      0.000000E+00    0.000000E+00    0.000000E+00

                                                      0.880751+283    Max error
     Iteration number:      1118

     =============================================================================================
       Temp     Fermi   Hole density  Population SR                  Hole mobility 
        [K]      [eV]     [cm^-3]      [h per cell]                    [cm^2/Vs]
     =============================================================================================

      300.000  -2.1363   0.10000E+13  -0.36513+277    0.841060E+02    0.000000E+00    0.000000E+00
                                                      0.000000E+00        Infinity    0.000000E+00
                                                      0.000000E+00    0.000000E+00    0.000000E+00

                                                          Infinity    Max error
     Iteration number:      1119

     =============================================================================================
       Temp     Fermi   Hole density  Population SR                  Hole mobility 
        [K]      [eV]     [cm^-3]      [h per cell]                    [cm^2/Vs]
     =============================================================================================

      300.000  -2.1363   0.10000E+13  -0.65361+277    0.841060E+02    0.000000E+00    0.000000E+00
                                                      0.000000E+00        Infinity    0.000000E+00
                                                      0.000000E+00    0.000000E+00    0.000000E+00

                                                               NaN    Max error
 
     Printing the state-resolved mobility to mobility_nk.fmt file

     Unfolding on the coarse grid
     elphon_wrap  :   3070.48s CPU   3129.34s WALL (       1 calls)

     INITIALIZATION: 

     init_vloc    :      0.03s CPU      0.03s WALL (       1 calls)
     init_us_1    :      0.01s CPU      0.01s WALL (       2 calls)



     Electron-Phonon interpolation
     ephwann      :   7429.59s CPU   8450.08s WALL (       1 calls)
     ep-interp    :   7381.34s CPU   8388.77s WALL (   16061 calls)

     Ham: step 1  :      0.00s CPU      0.00s WALL (       1 calls)
     Ham: step 2  :      0.02s CPU      0.02s WALL (       1 calls)
     ep: step 1   :      0.22s CPU      0.24s WALL (    1728 calls)
     ep: step 2   :   7429.02s CPU   8449.47s WALL (       1 calls)
     DynW2B       :      1.62s CPU      1.65s WALL (   16061 calls)
     HamW2B       :   3775.34s CPU   4011.31s WALL (49183375 calls)
     ephW2Bp      :    872.34s CPU   1371.62s WALL (   16061 calls)
     ephW2B       :    908.66s CPU   1028.59s WALL ( 1297582 calls)
     print_ibte   :    647.90s CPU    688.38s WALL (   16061 calls)
     vmewan2bloch :    752.50s CPU    851.97s WALL ( 2595164 calls)
     vmewan2bloch :    752.50s CPU    851.97s WALL ( 2595164 calls)


     Total program execution
     EPW          :      2h55m CPU      3h13m WALL

     ===============================================================================
     The functionality-dependent EPW.bib file was created with suggested citations. 
     Please consider citing the papers listed in EPW.bib.                           
     ===============================================================================
                                                                                    
