
     Program PWSCF v.7.0 starts on  7Apr2023 at  2:30:58 

     This program is part of the open-source Quantum ESPRESSO suite
     for quantum simulation of materials; please cite
         "P. Giannozzi et al., J. Phys.:Condens. Matter 21 395502 (2009);
         "P. Giannozzi et al., J. Phys.:Condens. Matter 29 465901 (2017);
         "P. Giannozzi et al., J. Chem. Phys. 152 154105 (2020);
          URL http://www.quantum-espresso.org", 
     in publications or presentations arising from this work. More details at
     http://www.quantum-espresso.org/quote

     Parallel version (MPI), running on     8 processors

     MPI processes distributed on     1 nodes
     K-points division:     npool     =       8
     4060 MiB available memory on the printing compute node when the environment starts

     Waiting for input...
     Reading input from standard input

     Current dimensions of program PWSCF are:
     Max number of different atomic species (ntypx) = 10
     Max number of k-points (npk) =  40000
     Max angular momentum in pseudopotentials (lmaxx) =  4

     Atomic positions and unit cell read from directory:
     ./si.save/


     Subspace diagonalization in iterative solution of the eigenvalue problem:
     a serial algorithm will be used


     G-vector sticks info
     --------------------
     sticks:   dense  smooth     PW     G-vecs:    dense   smooth      PW
     Sum         295     295    109                 3287     3287     749

     Using Slab Decomposition



     bravais-lattice index     =            2
     lattice parameter (alat)  =      10.2620  a.u.
     unit-cell volume          =     270.1693 (a.u.)^3
     number of atoms/cell      =            2
     number of atomic types    =            1
     number of electrons       =         8.00
     number of Kohn-Sham states=           12
     kinetic-energy cutoff     =      20.0000  Ry
     charge density cutoff     =      80.0000  Ry
     Exchange-correlation= PBE
                           (   1   4   3   4   0   0   0)

     celldm(1)=  10.262000  celldm(2)=   0.000000  celldm(3)=   0.000000
     celldm(4)=   0.000000  celldm(5)=   0.000000  celldm(6)=   0.000000

     crystal axes: (cart. coord. in units of alat)
               a(1) = (  -0.500000   0.000000   0.500000 )  
               a(2) = (   0.000000   0.500000   0.500000 )  
               a(3) = (  -0.500000   0.500000   0.000000 )  

     reciprocal axes: (cart. coord. in units 2 pi/alat)
               b(1) = ( -1.000000 -1.000000  1.000000 )  
               b(2) = (  1.000000  1.000000  1.000000 )  
               b(3) = ( -1.000000  1.000000 -1.000000 )  


     PseudoPot. # 1 for Si read from file:
     ./Si_r.upf
     MD5 check sum: c84abb4b0aac9c93a8e9f74896432a0a
     Pseudo is Norm-conserving + core correction, Zval =  4.0
     Generated using ONCVPSP code by D. R. Hamann
     Using radial grid of 1528 points,  6 beta functions with: 
                l(1) =   0
                l(2) =   0
                l(3) =   1
                l(4) =   1
                l(5) =   2
                l(6) =   2

     atomic species   valence    mass     pseudopotential
        Si             4.00    28.08550     Si( 1.00)

     48 Sym. Ops., with inversion, found (24 have fractional translation)



   Cartesian axes

     site n.     atom                  positions (alat units)
         1           Si  tau(   1) = (   0.0000000   0.0000000   0.0000000  )
         2           Si  tau(   2) = (   0.2500000   0.2500000   0.2500000  )

     number of k points=   216

     Number of k-points >= 100: set verbosity='high' to print them.

     Dense  grid:     3287 G-vectors     FFT dimensions: (  24,  24,  24)

     Estimated max dynamical RAM per process >       2.71 MB

     Estimated total dynamical RAM >      21.66 MB

     The potential is recalculated from file :
     ./si.save/charge-density

     Starting wfcs are    8 randomized atomic wfcs +    4 random wfcs

     Band Structure Calculation
     Davidson diagonalization with overlap

     ethr =  1.25E-12,  avg # of iterations = 45.2

     total cpu time spent up to now is        4.8 secs

     End of band structure calculation

     Number of k-points >= 100: set verbosity='high' to print the bands.

     highest occupied, lowest unoccupied level (ev):     6.2426    6.9554

     Writing all to output data dir ./si.save/

     init_run     :      0.04s CPU      0.04s WALL (       1 calls)
     electrons    :      4.26s CPU      4.50s WALL (       1 calls)

     Called by init_run:
     wfcinit      :      0.00s CPU      0.00s WALL (       1 calls)
     potinit      :      0.01s CPU      0.01s WALL (       1 calls)
     hinit0       :      0.03s CPU      0.03s WALL (       1 calls)

     Called by electrons:
     c_bands      :      4.26s CPU      4.50s WALL (       1 calls)
     v_of_rho     :      0.01s CPU      0.01s WALL (       1 calls)

     Called by c_bands:
     init_us_2    :      0.00s CPU      0.00s WALL (      27 calls)
     init_us_2:cp :      0.00s CPU      0.00s WALL (      27 calls)
     cegterg      :      3.32s CPU      3.52s WALL (      72 calls)

     Called by *egterg:
     cdiaghg      :      0.22s CPU      0.24s WALL (    1270 calls)
     h_psi        :      2.39s CPU      2.54s WALL (    1342 calls)
     g_psi        :      0.01s CPU      0.02s WALL (    1243 calls)

     Called by h_psi:
     h_psi:calbec :      0.24s CPU      0.26s WALL (    1342 calls)
     vloc_psi     :      1.88s CPU      2.00s WALL (    1342 calls)
     add_vuspsi   :      0.26s CPU      0.28s WALL (    1342 calls)

     General routines
     calbec       :      0.24s CPU      0.25s WALL (    1342 calls)
     fft          :      0.00s CPU      0.00s WALL (      11 calls)
     fftw         :      1.69s CPU      1.80s WALL (   18930 calls)
     davcio       :      0.00s CPU      0.00s WALL (      54 calls)

     Parallel routines

     PWSCF        :      4.54s CPU      4.81s WALL


   This run was terminated on:   2:31: 3   7Apr2023            

=------------------------------------------------------------------------------=
   JOB DONE.
=------------------------------------------------------------------------------=
