
     Program PHONON v.7.0 starts on  7Apr2023 at  2:21: 0 

     This program is part of the open-source Quantum ESPRESSO suite
     for quantum simulation of materials; please cite
         "P. Giannozzi et al., J. Phys.:Condens. Matter 21 395502 (2009);
         "P. Giannozzi et al., J. Phys.:Condens. Matter 29 465901 (2017);
         "P. Giannozzi et al., J. Chem. Phys. 152 154105 (2020);
          URL http://www.quantum-espresso.org", 
     in publications or presentations arising from this work. More details at
     http://www.quantum-espresso.org/quote

     Parallel version (MPI), running on     8 processors

     MPI processes distributed on     1 nodes
     R & G space division:  proc/nbgrp/npool/nimage =       8
     4439 MiB available memory on the printing compute node when the environment starts

     Waiting for input...
     Reading input from standard input

     Reading xml data from directory:

     ./si.save/

     IMPORTANT: XC functional enforced from input :
     Exchange-correlation= PBE
                           (   1   4   3   4   0   0   0)
     Any further DFT definition will be discarded
     Please, verify this is what you really want


     Parallelization info
     --------------------
     sticks:   dense  smooth     PW     G-vecs:    dense   smooth      PW
     Min          36      36     12                  410      410      80
     Max          37      37     13                  412      412      81
     Sum         295     295     97                 3287     3287     645

     Using Slab Decomposition

     Reading collected, re-writing distributed wavefunctions


     Dynamical matrices for ( 3, 3, 3)  uniform grid of q-points
     (   4 q-points):
       N         xq(1)         xq(2)         xq(3) 
       1   0.000000000   0.000000000   0.000000000
       2  -0.333333333   0.333333333  -0.333333333
       3   0.000000000   0.666666667   0.000000000
       4   0.666666667  -0.000000000   0.666666667

     Saving dvscf to file. Distribute only q points, not irreducible represetations.

     Calculation of q =    0.0000000   0.0000000   0.0000000

     --                                                                         

     bravais-lattice index     =            2
     lattice parameter (alat)  =      10.2620  a.u.
     unit-cell volume          =     270.1693 (a.u.)^3
     number of atoms/cell      =            2
     number of atomic types    =            1
     kinetic-energy cut-off    =      20.0000  Ry
     charge density cut-off    =      80.0000  Ry
     convergence threshold     =      1.0E-14
     beta                      =       0.7000
     number of iterations used =            4
     Exchange-correlation= PBE
                           (   1   4   3   4   0   0   0)


     celldm(1)=   10.26200  celldm(2)=    0.00000  celldm(3)=    0.00000
     celldm(4)=    0.00000  celldm(5)=    0.00000  celldm(6)=    0.00000

     crystal axes: (cart. coord. in units of alat)
               a(1) = ( -0.5000  0.0000  0.5000 )  
               a(2) = (  0.0000  0.5000  0.5000 )  
               a(3) = ( -0.5000  0.5000  0.0000 )  

     reciprocal axes: (cart. coord. in units 2 pi/alat)
               b(1) = ( -1.0000 -1.0000  1.0000 )  
               b(2) = (  1.0000  1.0000  1.0000 )  
               b(3) = ( -1.0000  1.0000 -1.0000 )  


     Atoms inside the unit cell: 

     Cartesian axes

     site n.  atom      mass           positions (alat units)
        1     Si  28.0855   tau(    1) = (    0.00000    0.00000    0.00000  )
        2     Si  28.0855   tau(    2) = (    0.25000    0.25000    0.25000  )

     Computing dynamical matrix for 
                    q = (   0.0000000   0.0000000   0.0000000 )

     49 Sym.Ops. (with q -> -q+G )


     G cutoff =  213.3999  (    412 G-vectors)     FFT grid: ( 24, 24, 24)
     number of k points=    72

     PseudoPot. # 1 for Si read from file:
     ./Si_r.upf
     MD5 check sum: c84abb4b0aac9c93a8e9f74896432a0a
     Pseudo is Norm-conserving + core correction, Zval =  4.0
     Generated using ONCVPSP code by D. R. Hamann
     Using radial grid of 1528 points,  6 beta functions with: 
                l(1) =   0
                l(2) =   0
                l(3) =   1
                l(4) =   1
                l(5) =   2
                l(6) =   2

     Mode symmetry, O_h (m-3m)  point group:


     Electric field:
     Dielectric constant
     Born effective charges in two ways 


     Atomic displacements:
     There are    2 irreducible representations

     Representation     1      3 modes -  To be done

     Representation     2      3 modes -  To be done



     Alpha used in Ewald sum =   0.8000
     PHONON       :      0.28s CPU      0.33s WALL


     Electric Fields Calculation

      iter #   1 total cpu time :     2.6 secs   av.it.:   6.2
      thresh= 1.000E-02 alpha_mix =  0.700 |ddv_scf|^2 =  4.586E-07

      iter #   2 total cpu time :     5.0 secs   av.it.:  10.2
      thresh= 6.772E-05 alpha_mix =  0.700 |ddv_scf|^2 =  2.686E-08

      iter #   3 total cpu time :     6.2 secs   av.it.:  10.0
      thresh= 1.639E-05 alpha_mix =  0.700 |ddv_scf|^2 =  1.402E-09

      iter #   4 total cpu time :     7.2 secs   av.it.:   9.9
      thresh= 3.745E-06 alpha_mix =  0.700 |ddv_scf|^2 =  9.291E-12

      iter #   5 total cpu time :     8.2 secs   av.it.:  10.3
      thresh= 3.048E-07 alpha_mix =  0.700 |ddv_scf|^2 =  9.546E-15

     End of electric fields calculation

          Dielectric constant in cartesian axis 

          (      12.982908688       0.000000000       0.000000000 )
          (       0.000000000      12.982908688      -0.000000000 )
          (       0.000000000      -0.000000000      12.982908688 )

          Effective charges (d Force / dE) in cartesian axis without acoustic sum rule applied (asr)

           atom      1   Si Mean Z*:       -0.00778
      Ex  (       -0.00778        0.00000        0.00000 )
      Ey  (        0.00000       -0.00778       -0.00000 )
      Ez  (        0.00000       -0.00000       -0.00778 )
           atom      2   Si Mean Z*:       -0.00778
      Ex  (       -0.00778        0.00000        0.00000 )
      Ey  (        0.00000       -0.00778        0.00000 )
      Ez  (        0.00000        0.00000       -0.00778 )

          Effective charges Sum: Mean:       -0.01556
             -0.01556        0.00000        0.00000
              0.00000       -0.01556       -0.00000
              0.00000       -0.00000       -0.01556

          Effective charges (d Force / dE) in cartesian axis with asr applied: 
           atom      1   Si Mean Z*:        0.00000
      E*x (        0.00000        0.00000        0.00000 )
      E*y (        0.00000        0.00000       -0.00000 )
      E*z (       -0.00000       -0.00000        0.00000 )
           atom      2   Si Mean Z*:       -0.00000
      E*x (       -0.00000       -0.00000        0.00000 )
      E*y (       -0.00000       -0.00000        0.00000 )
      E*z (        0.00000        0.00000       -0.00000 )


     Representation #   1 modes #   1   2   3

     Self-consistent Calculation

      iter #   1 total cpu time :     9.4 secs   av.it.:   5.6
      thresh= 1.000E-02 alpha_mix =  0.700 |ddv_scf|^2 =  7.156E-08

      iter #   2 total cpu time :    10.5 secs   av.it.:  10.5
      thresh= 2.675E-05 alpha_mix =  0.700 |ddv_scf|^2 =  1.571E-09

      iter #   3 total cpu time :    11.5 secs   av.it.:  10.4
      thresh= 3.963E-06 alpha_mix =  0.700 |ddv_scf|^2 =  6.897E-11

      iter #   4 total cpu time :    12.6 secs   av.it.:  10.2
      thresh= 8.305E-07 alpha_mix =  0.700 |ddv_scf|^2 =  2.620E-13

      iter #   5 total cpu time :    13.8 secs   av.it.:  10.5
      thresh= 5.118E-08 alpha_mix =  0.700 |ddv_scf|^2 =  2.617E-15

     End of self-consistent calculation

     Convergence has been achieved 


     Representation #   2 modes #   4   5   6

     Self-consistent Calculation

      iter #   1 total cpu time :    14.7 secs   av.it.:   5.7
      thresh= 1.000E-02 alpha_mix =  0.700 |ddv_scf|^2 =  4.842E-08

      iter #   2 total cpu time :    15.7 secs   av.it.:  10.5
      thresh= 2.200E-05 alpha_mix =  0.700 |ddv_scf|^2 =  1.828E-09

      iter #   3 total cpu time :    16.8 secs   av.it.:  10.4
      thresh= 4.276E-06 alpha_mix =  0.700 |ddv_scf|^2 =  9.402E-11

      iter #   4 total cpu time :    17.8 secs   av.it.:  10.6
      thresh= 9.696E-07 alpha_mix =  0.700 |ddv_scf|^2 =  2.524E-13

      iter #   5 total cpu time :    18.8 secs   av.it.:  10.4
      thresh= 5.024E-08 alpha_mix =  0.700 |ddv_scf|^2 =  1.556E-15

     End of self-consistent calculation

     Convergence has been achieved 

     Number of q in the star =    1
     List of q in the star:
          1   0.000000000   0.000000000   0.000000000

          Dielectric constant in cartesian axis 

          (      12.982908688       0.000000000       0.000000000 )
          (       0.000000000      12.982908688      -0.000000000 )
          (       0.000000000      -0.000000000      12.982908688 )

          Effective charges (d Force / dE) in cartesian axis without acoustic sum rule applied (asr)

           atom      1   Si Mean Z*:       -0.00778
      Ex  (       -0.00778        0.00000        0.00000 )
      Ey  (        0.00000       -0.00778       -0.00000 )
      Ez  (        0.00000       -0.00000       -0.00778 )
           atom      2   Si Mean Z*:       -0.00778
      Ex  (       -0.00778        0.00000        0.00000 )
      Ey  (        0.00000       -0.00778        0.00000 )
      Ez  (        0.00000        0.00000       -0.00778 )

          Effective charges Sum: Mean:       -0.01556
             -0.01556        0.00000        0.00000
              0.00000       -0.01556       -0.00000
              0.00000       -0.00000       -0.01556

          Effective charges (d Force / dE) in cartesian axis with asr applied: 
           atom      1   Si Mean Z*:        0.00000
      E*x (        0.00000        0.00000        0.00000 )
      E*y (        0.00000        0.00000       -0.00000 )
      E*z (       -0.00000       -0.00000        0.00000 )
           atom      2   Si Mean Z*:       -0.00000
      E*x (       -0.00000       -0.00000        0.00000 )
      E*y (       -0.00000       -0.00000        0.00000 )
      E*z (        0.00000        0.00000       -0.00000 )

          Effective charges (d P / du) in cartesian axis 

           atom      1   Si 
      Px  (       -0.00794        0.00000        0.00000 )
      Py  (        0.00000       -0.00794       -0.00000 )
      Pz  (        0.00000       -0.00000       -0.00794 )
           atom      2   Si 
      Px  (       -0.00794        0.00000        0.00000 )
      Py  (        0.00000       -0.00794       -0.00000 )
      Pz  (        0.00000       -0.00000       -0.00794 )

     Diagonalizing the dynamical matrix

     q = (    0.000000000   0.000000000   0.000000000 ) 

 **************************************************************************
     freq (    1) =      -0.122472 [THz] =      -4.085231 [cm-1]
     freq (    2) =      -0.122472 [THz] =      -4.085231 [cm-1]
     freq (    3) =      -0.122472 [THz] =      -4.085231 [cm-1]
     freq (    4) =      15.394156 [THz] =     513.493784 [cm-1]
     freq (    5) =      15.394156 [THz] =     513.493784 [cm-1]
     freq (    6) =      15.394156 [THz] =     513.493784 [cm-1]
 **************************************************************************

     Mode symmetry, O_h (m-3m)  point group:

     freq (   1-   3) =         -4.1  [cm-1]   --> T_1u G_15  G_4- I  
     freq (   4-   6) =        513.5  [cm-1]   --> T_2g G_25' G_5+ R  

     Calculation of q =   -0.3333333   0.3333333  -0.3333333

     Subspace diagonalization in iterative solution of the eigenvalue problem:
     a serial algorithm will be used


     Parallelization info
     --------------------
     sticks:   dense  smooth     PW     G-vecs:    dense   smooth      PW
     Min          36      36     15                  410      410     102
     Max          37      37     16                  412      412     103
     Sum         295     295    121                 3287     3287     821

     Using Slab Decomposition


     Title: 
     --                                                                         


     bravais-lattice index     =            2
     lattice parameter (alat)  =      10.2620  a.u.
     unit-cell volume          =     270.1693 (a.u.)^3
     number of atoms/cell      =            2
     number of atomic types    =            1
     number of electrons       =         8.00
     number of Kohn-Sham states=            4
     kinetic-energy cutoff     =      20.0000  Ry
     charge density cutoff     =      80.0000  Ry
     Exchange-correlation= PBE
                           (   1   4   3   4   0   0   0)

     celldm(1)=  10.262000  celldm(2)=   0.000000  celldm(3)=   0.000000
     celldm(4)=   0.000000  celldm(5)=   0.000000  celldm(6)=   0.000000

     crystal axes: (cart. coord. in units of alat)
               a(1) = (  -0.500000   0.000000   0.500000 )  
               a(2) = (   0.000000   0.500000   0.500000 )  
               a(3) = (  -0.500000   0.500000   0.000000 )  

     reciprocal axes: (cart. coord. in units 2 pi/alat)
               b(1) = ( -1.000000 -1.000000  1.000000 )  
               b(2) = (  1.000000  1.000000  1.000000 )  
               b(3) = ( -1.000000  1.000000 -1.000000 )  


     PseudoPot. # 1 for Si read from file:
     ./Si_r.upf
     MD5 check sum: c84abb4b0aac9c93a8e9f74896432a0a
     Pseudo is Norm-conserving + core correction, Zval =  4.0
     Generated using ONCVPSP code by D. R. Hamann
     Using radial grid of 1528 points,  6 beta functions with: 
                l(1) =   0
                l(2) =   0
                l(3) =   1
                l(4) =   1
                l(5) =   2
                l(6) =   2

     atomic species   valence    mass     pseudopotential
        Si             4.00    28.08550     Si( 1.00)

     48 Sym. Ops., with inversion, found



   Cartesian axes

     site n.     atom                  positions (alat units)
         1           Si  tau(   1) = (   0.0000000   0.0000000   0.0000000  )
         2           Si  tau(   2) = (   0.2500000   0.2500000   0.2500000  )

     number of k points=   728

     Number of k-points >= 100: set verbosity='high' to print them.

     Dense  grid:     3287 G-vectors     FFT dimensions: (  24,  24,  24)

     Estimated max dynamical RAM per process >       0.99 MB

     Estimated total dynamical RAM >       7.90 MB

     The potential is recalculated from file :
     ./_ph0/si.q_2/si.save/charge-density

     Starting wfcs are    8 atomic wfcs

     Band Structure Calculation
     Davidson diagonalization with overlap

     ethr =  1.25E-10,  avg # of iterations = 12.2

     total cpu time spent up to now is        4.1 secs

     End of band structure calculation

     Number of k-points >= 100: set verbosity='high' to print the bands.

     highest occupied level (ev):     6.2426

     Writing config to output data dir ./_ph0/si.q_2/si.save/

     --                                                                         

     bravais-lattice index     =            2
     lattice parameter (alat)  =      10.2620  a.u.
     unit-cell volume          =     270.1693 (a.u.)^3
     number of atoms/cell      =            2
     number of atomic types    =            1
     kinetic-energy cut-off    =      20.0000  Ry
     charge density cut-off    =      80.0000  Ry
     convergence threshold     =      1.0E-14
     beta                      =       0.7000
     number of iterations used =            4
     Exchange-correlation= PBE
                           (   1   4   3   4   0   0   0)


     celldm(1)=   10.26200  celldm(2)=    0.00000  celldm(3)=    0.00000
     celldm(4)=    0.00000  celldm(5)=    0.00000  celldm(6)=    0.00000

     crystal axes: (cart. coord. in units of alat)
               a(1) = ( -0.5000  0.0000  0.5000 )  
               a(2) = (  0.0000  0.5000  0.5000 )  
               a(3) = ( -0.5000  0.5000  0.0000 )  

     reciprocal axes: (cart. coord. in units 2 pi/alat)
               b(1) = ( -1.0000 -1.0000  1.0000 )  
               b(2) = (  1.0000  1.0000  1.0000 )  
               b(3) = ( -1.0000  1.0000 -1.0000 )  


     Atoms inside the unit cell: 

     Cartesian axes

     site n.  atom      mass           positions (alat units)
        1     Si  28.0855   tau(    1) = (    0.00000    0.00000    0.00000  )
        2     Si  28.0855   tau(    2) = (    0.25000    0.25000    0.25000  )

     Computing dynamical matrix for 
                    q = (  -0.3333333   0.3333333  -0.3333333 )

      6 Sym.Ops. (no q -> -q+G )


     G cutoff =  213.3999  (    412 G-vectors)     FFT grid: ( 24, 24, 24)
     number of k points=   728

     PseudoPot. # 1 for Si read from file:
     ./Si_r.upf
     MD5 check sum: c84abb4b0aac9c93a8e9f74896432a0a
     Pseudo is Norm-conserving + core correction, Zval =  4.0
     Generated using ONCVPSP code by D. R. Hamann
     Using radial grid of 1528 points,  6 beta functions with: 
                l(1) =   0
                l(2) =   0
                l(3) =   1
                l(4) =   1
                l(5) =   2
                l(6) =   2

     Mode symmetry, C_3v (3m)   point group:


     Atomic displacements:
     There are    4 irreducible representations

     Representation     1      1 modes -  To be done

     Representation     2      1 modes -  To be done

     Representation     3      2 modes -  To be done

     Representation     4      2 modes -  To be done



     Alpha used in Ewald sum =   0.8000
     PHONON       :     20.70s CPU     23.44s WALL



     Representation #   1 mode #   1

     Self-consistent Calculation

      iter #   1 total cpu time :    24.7 secs   av.it.:   6.3
      thresh= 1.000E-02 alpha_mix =  0.700 |ddv_scf|^2 =  4.268E-04

      iter #   2 total cpu time :    26.2 secs   av.it.:   8.7
      thresh= 2.066E-03 alpha_mix =  0.700 |ddv_scf|^2 =  3.278E-03

      iter #   3 total cpu time :    27.6 secs   av.it.:   7.2
      thresh= 5.725E-03 alpha_mix =  0.700 |ddv_scf|^2 =  6.141E-07

      iter #   4 total cpu time :    29.2 secs   av.it.:   8.8
      thresh= 7.836E-05 alpha_mix =  0.700 |ddv_scf|^2 =  1.258E-08

      iter #   5 total cpu time :    30.7 secs   av.it.:   8.8
      thresh= 1.122E-05 alpha_mix =  0.700 |ddv_scf|^2 =  1.517E-10

      iter #   6 total cpu time :    32.2 secs   av.it.:   9.3
      thresh= 1.232E-06 alpha_mix =  0.700 |ddv_scf|^2 =  1.048E-10

      iter #   7 total cpu time :    33.6 secs   av.it.:   8.4
      thresh= 1.024E-06 alpha_mix =  0.700 |ddv_scf|^2 =  1.129E-10

      iter #   8 total cpu time :    35.4 secs   av.it.:   8.0
      thresh= 1.063E-06 alpha_mix =  0.700 |ddv_scf|^2 =  3.906E-12

      iter #   9 total cpu time :    37.5 secs   av.it.:   8.2
      thresh= 1.976E-07 alpha_mix =  0.700 |ddv_scf|^2 =  1.755E-12

      iter #  10 total cpu time :    39.6 secs   av.it.:   8.2
      thresh= 1.325E-07 alpha_mix =  0.700 |ddv_scf|^2 =  3.142E-14

      iter #  11 total cpu time :    41.4 secs   av.it.:   8.8
      thresh= 1.773E-08 alpha_mix =  0.700 |ddv_scf|^2 =  6.611E-15

     End of self-consistent calculation

     Convergence has been achieved 


     Representation #   2 mode #   2

     Self-consistent Calculation

      iter #   1 total cpu time :    42.6 secs   av.it.:   6.3
      thresh= 1.000E-02 alpha_mix =  0.700 |ddv_scf|^2 =  4.268E-04

      iter #   2 total cpu time :    44.0 secs   av.it.:   8.7
      thresh= 2.066E-03 alpha_mix =  0.700 |ddv_scf|^2 =  3.278E-03

      iter #   3 total cpu time :    45.2 secs   av.it.:   7.2
      thresh= 5.725E-03 alpha_mix =  0.700 |ddv_scf|^2 =  6.141E-07

      iter #   4 total cpu time :    46.6 secs   av.it.:   8.8
      thresh= 7.837E-05 alpha_mix =  0.700 |ddv_scf|^2 =  1.257E-08

      iter #   5 total cpu time :    48.0 secs   av.it.:   8.8
      thresh= 1.121E-05 alpha_mix =  0.700 |ddv_scf|^2 =  1.507E-10

      iter #   6 total cpu time :    49.5 secs   av.it.:   9.3
      thresh= 1.228E-06 alpha_mix =  0.700 |ddv_scf|^2 =  9.875E-11

      iter #   7 total cpu time :    50.9 secs   av.it.:   8.4
      thresh= 9.937E-07 alpha_mix =  0.700 |ddv_scf|^2 =  1.125E-10

      iter #   8 total cpu time :    52.2 secs   av.it.:   8.0
      thresh= 1.061E-06 alpha_mix =  0.700 |ddv_scf|^2 =  3.882E-12

      iter #   9 total cpu time :    53.6 secs   av.it.:   8.2
      thresh= 1.970E-07 alpha_mix =  0.700 |ddv_scf|^2 =  1.751E-12

      iter #  10 total cpu time :    54.9 secs   av.it.:   8.2
      thresh= 1.323E-07 alpha_mix =  0.700 |ddv_scf|^2 =  3.119E-14

      iter #  11 total cpu time :    56.4 secs   av.it.:   8.8
      thresh= 1.766E-08 alpha_mix =  0.700 |ddv_scf|^2 =  6.589E-15

     End of self-consistent calculation

     Convergence has been achieved 


     Representation #   3 modes #   3   4

     Self-consistent Calculation

      iter #   1 total cpu time :    58.7 secs   av.it.:   6.0
      thresh= 1.000E-02 alpha_mix =  0.700 |ddv_scf|^2 =  2.345E-07

      iter #   2 total cpu time :    62.1 secs   av.it.:  10.5
      thresh= 4.843E-05 alpha_mix =  0.700 |ddv_scf|^2 =  1.554E-08

      iter #   3 total cpu time :    65.4 secs   av.it.:  10.3
      thresh= 1.247E-05 alpha_mix =  0.700 |ddv_scf|^2 =  2.675E-10

      iter #   4 total cpu time :    68.7 secs   av.it.:  10.4
      thresh= 1.636E-06 alpha_mix =  0.700 |ddv_scf|^2 =  2.363E-12

      iter #   5 total cpu time :    72.0 secs   av.it.:  10.4
      thresh= 1.537E-07 alpha_mix =  0.700 |ddv_scf|^2 =  8.044E-14

      iter #   6 total cpu time :    75.3 secs   av.it.:  10.5
      thresh= 2.836E-08 alpha_mix =  0.700 |ddv_scf|^2 =  1.151E-15

     End of self-consistent calculation

     Convergence has been achieved 


     Representation #   4 modes #   5   6

     Self-consistent Calculation

      iter #   1 total cpu time :    77.7 secs   av.it.:   6.0
      thresh= 1.000E-02 alpha_mix =  0.700 |ddv_scf|^2 =  2.345E-07

      iter #   2 total cpu time :    81.3 secs   av.it.:  10.4
      thresh= 4.842E-05 alpha_mix =  0.700 |ddv_scf|^2 =  1.552E-08

      iter #   3 total cpu time :    84.6 secs   av.it.:  10.2
      thresh= 1.246E-05 alpha_mix =  0.700 |ddv_scf|^2 =  2.675E-10

      iter #   4 total cpu time :    87.8 secs   av.it.:  10.3
      thresh= 1.636E-06 alpha_mix =  0.700 |ddv_scf|^2 =  2.361E-12

      iter #   5 total cpu time :    91.2 secs   av.it.:  10.4
      thresh= 1.537E-07 alpha_mix =  0.700 |ddv_scf|^2 =  8.046E-14

      iter #   6 total cpu time :    95.2 secs   av.it.:  10.4
      thresh= 2.836E-08 alpha_mix =  0.700 |ddv_scf|^2 =  1.156E-15

     End of self-consistent calculation

     Convergence has been achieved 

     Number of q in the star =    8
     List of q in the star:
          1  -0.333333333   0.333333333  -0.333333333
          2   0.333333333   0.333333333  -0.333333333
          3   0.333333333   0.333333333   0.333333333
          4  -0.333333333   0.333333333   0.333333333
          5   0.333333333  -0.333333333   0.333333333
          6  -0.333333333  -0.333333333  -0.333333333
          7   0.333333333  -0.333333333  -0.333333333
          8  -0.333333333  -0.333333333   0.333333333

     Diagonalizing the dynamical matrix

     q = (   -0.333333333   0.333333333  -0.333333333 ) 

 **************************************************************************
     freq (    1) =       3.073525 [THz] =     102.521760 [cm-1]
     freq (    2) =       3.073525 [THz] =     102.521760 [cm-1]
     freq (    3) =       8.755391 [THz] =     292.048399 [cm-1]
     freq (    4) =      13.849641 [THz] =     461.974299 [cm-1]
     freq (    5) =      14.746329 [THz] =     491.884602 [cm-1]
     freq (    6) =      14.746329 [THz] =     491.884602 [cm-1]
 **************************************************************************

     Mode symmetry, C_3v (3m)   point group:

     freq (   1-   2) =        102.5  [cm-1]   --> E    L_3           
     freq (   3-   3) =        292.0  [cm-1]   --> A_1  L_1           
     freq (   4-   4) =        462.0  [cm-1]   --> A_1  L_1           
     freq (   5-   6) =        491.9  [cm-1]   --> E    L_3           

     Calculation of q =    0.0000000   0.6666667   0.0000000

     Parallelization info
     --------------------
     sticks:   dense  smooth     PW     G-vecs:    dense   smooth      PW
     Min          36      36     15                  410      410     102
     Max          37      37     16                  412      412     103
     Sum         295     295    121                 3287     3287     821

     Using Slab Decomposition


     Title: 
     --                                                                         


     bravais-lattice index     =            2
     lattice parameter (alat)  =      10.2620  a.u.
     unit-cell volume          =     270.1693 (a.u.)^3
     number of atoms/cell      =            2
     number of atomic types    =            1
     number of electrons       =         8.00
     number of Kohn-Sham states=            4
     kinetic-energy cutoff     =      20.0000  Ry
     charge density cutoff     =      80.0000  Ry
     Exchange-correlation= PBE
                           (   1   4   3   4   0   0   0)

     celldm(1)=  10.262000  celldm(2)=   0.000000  celldm(3)=   0.000000
     celldm(4)=   0.000000  celldm(5)=   0.000000  celldm(6)=   0.000000

     crystal axes: (cart. coord. in units of alat)
               a(1) = (  -0.500000   0.000000   0.500000 )  
               a(2) = (   0.000000   0.500000   0.500000 )  
               a(3) = (  -0.500000   0.500000   0.000000 )  

     reciprocal axes: (cart. coord. in units 2 pi/alat)
               b(1) = ( -1.000000 -1.000000  1.000000 )  
               b(2) = (  1.000000  1.000000  1.000000 )  
               b(3) = ( -1.000000  1.000000 -1.000000 )  


     PseudoPot. # 1 for Si read from file:
     ./Si_r.upf
     MD5 check sum: c84abb4b0aac9c93a8e9f74896432a0a
     Pseudo is Norm-conserving + core correction, Zval =  4.0
     Generated using ONCVPSP code by D. R. Hamann
     Using radial grid of 1528 points,  6 beta functions with: 
                l(1) =   0
                l(2) =   0
                l(3) =   1
                l(4) =   1
                l(5) =   2
                l(6) =   2

     atomic species   valence    mass     pseudopotential
        Si             4.00    28.08550     Si( 1.00)

     48 Sym. Ops., with inversion, found



   Cartesian axes

     site n.     atom                  positions (alat units)
         1           Si  tau(   1) = (   0.0000000   0.0000000   0.0000000  )
         2           Si  tau(   2) = (   0.2500000   0.2500000   0.2500000  )

     number of k points=   588

     Number of k-points >= 100: set verbosity='high' to print them.

     Dense  grid:     3287 G-vectors     FFT dimensions: (  24,  24,  24)

     Estimated max dynamical RAM per process >       0.99 MB

     Estimated total dynamical RAM >       7.94 MB

     The potential is recalculated from file :
     ./_ph0/si.q_3/si.save/charge-density

     Starting wfcs are    8 atomic wfcs

     Band Structure Calculation
     Davidson diagonalization with overlap

     ethr =  1.25E-10,  avg # of iterations = 12.1

     total cpu time spent up to now is        8.7 secs

     End of band structure calculation

     Number of k-points >= 100: set verbosity='high' to print the bands.

     highest occupied level (ev):     6.2426

     Writing config to output data dir ./_ph0/si.q_3/si.save/

     --                                                                         

     bravais-lattice index     =            2
     lattice parameter (alat)  =      10.2620  a.u.
     unit-cell volume          =     270.1693 (a.u.)^3
     number of atoms/cell      =            2
     number of atomic types    =            1
     kinetic-energy cut-off    =      20.0000  Ry
     charge density cut-off    =      80.0000  Ry
     convergence threshold     =      1.0E-14
     beta                      =       0.7000
     number of iterations used =            4
     Exchange-correlation= PBE
                           (   1   4   3   4   0   0   0)


     celldm(1)=   10.26200  celldm(2)=    0.00000  celldm(3)=    0.00000
     celldm(4)=    0.00000  celldm(5)=    0.00000  celldm(6)=    0.00000

     crystal axes: (cart. coord. in units of alat)
               a(1) = ( -0.5000  0.0000  0.5000 )  
               a(2) = (  0.0000  0.5000  0.5000 )  
               a(3) = ( -0.5000  0.5000  0.0000 )  

     reciprocal axes: (cart. coord. in units 2 pi/alat)
               b(1) = ( -1.0000 -1.0000  1.0000 )  
               b(2) = (  1.0000  1.0000  1.0000 )  
               b(3) = ( -1.0000  1.0000 -1.0000 )  


     Atoms inside the unit cell: 

     Cartesian axes

     site n.  atom      mass           positions (alat units)
        1     Si  28.0855   tau(    1) = (    0.00000    0.00000    0.00000  )
        2     Si  28.0855   tau(    2) = (    0.25000    0.25000    0.25000  )

     Computing dynamical matrix for 
                    q = (   0.0000000   0.6666667   0.0000000 )

      8 Sym.Ops. (no q -> -q+G )


     G cutoff =  213.3999  (    412 G-vectors)     FFT grid: ( 24, 24, 24)
     number of k points=   588

     PseudoPot. # 1 for Si read from file:
     ./Si_r.upf
     MD5 check sum: c84abb4b0aac9c93a8e9f74896432a0a
     Pseudo is Norm-conserving + core correction, Zval =  4.0
     Generated using ONCVPSP code by D. R. Hamann
     Using radial grid of 1528 points,  6 beta functions with: 
                l(1) =   0
                l(2) =   0
                l(3) =   1
                l(4) =   1
                l(5) =   2
                l(6) =   2

     Mode symmetry, C_4v (4mm)  point group:


     Atomic displacements:
     There are    4 irreducible representations

     Representation     1      1 modes -  To be done

     Representation     2      1 modes -  To be done

     Representation     3      2 modes -  To be done

     Representation     4      2 modes -  To be done



     Alpha used in Ewald sum =   0.8000
     PHONON       :   1m31.50s CPU   1m40.29s WALL



     Representation #   1 mode #   1

     Self-consistent Calculation

      iter #   1 total cpu time :   101.5 secs   av.it.:   6.3
      thresh= 1.000E-02 alpha_mix =  0.700 |ddv_scf|^2 =  4.318E-04

      iter #   2 total cpu time :   103.0 secs   av.it.:   8.6
      thresh= 2.078E-03 alpha_mix =  0.700 |ddv_scf|^2 =  2.587E-03

      iter #   3 total cpu time :   104.4 secs   av.it.:   7.4
      thresh= 5.086E-03 alpha_mix =  0.700 |ddv_scf|^2 =  1.488E-08

      iter #   4 total cpu time :   105.7 secs   av.it.:   9.0
      thresh= 1.220E-05 alpha_mix =  0.700 |ddv_scf|^2 =  8.266E-10

      iter #   5 total cpu time :   106.8 secs   av.it.:   8.9
      thresh= 2.875E-06 alpha_mix =  0.700 |ddv_scf|^2 =  3.222E-11

      iter #   6 total cpu time :   108.1 secs   av.it.:   8.9
      thresh= 5.676E-07 alpha_mix =  0.700 |ddv_scf|^2 =  2.709E-13

      iter #   7 total cpu time :   109.3 secs   av.it.:   9.0
      thresh= 5.205E-08 alpha_mix =  0.700 |ddv_scf|^2 =  1.527E-14

      iter #   8 total cpu time :   110.4 secs   av.it.:   8.2
      thresh= 1.236E-08 alpha_mix =  0.700 |ddv_scf|^2 =  1.515E-16

     End of self-consistent calculation

     Convergence has been achieved 


     Representation #   2 mode #   2

     Self-consistent Calculation

      iter #   1 total cpu time :   111.3 secs   av.it.:   5.7
      thresh= 1.000E-02 alpha_mix =  0.700 |ddv_scf|^2 =  5.788E-06

      iter #   2 total cpu time :   112.6 secs   av.it.:   9.0
      thresh= 2.406E-04 alpha_mix =  0.700 |ddv_scf|^2 =  2.362E-06

      iter #   3 total cpu time :   113.8 secs   av.it.:   8.6
      thresh= 1.537E-04 alpha_mix =  0.700 |ddv_scf|^2 =  3.390E-09

      iter #   4 total cpu time :   115.0 secs   av.it.:   8.9
      thresh= 5.822E-06 alpha_mix =  0.700 |ddv_scf|^2 =  2.267E-10

      iter #   5 total cpu time :   116.3 secs   av.it.:   8.9
      thresh= 1.506E-06 alpha_mix =  0.700 |ddv_scf|^2 =  1.034E-12

      iter #   6 total cpu time :   117.5 secs   av.it.:   8.9
      thresh= 1.017E-07 alpha_mix =  0.700 |ddv_scf|^2 =  2.729E-14

      iter #   7 total cpu time :   118.6 secs   av.it.:   8.7
      thresh= 1.652E-08 alpha_mix =  0.700 |ddv_scf|^2 =  5.483E-16

     End of self-consistent calculation

     Convergence has been achieved 


     Representation #   3 modes #   3   4

     Self-consistent Calculation

      iter #   1 total cpu time :   120.6 secs   av.it.:   6.0
      thresh= 1.000E-02 alpha_mix =  0.700 |ddv_scf|^2 =  8.114E-07

      iter #   2 total cpu time :   130.7 secs   av.it.:  10.2
      thresh= 9.008E-05 alpha_mix =  0.700 |ddv_scf|^2 =  1.660E-07

      iter #   3 total cpu time :   142.6 secs   av.it.:   9.8
      thresh= 4.074E-05 alpha_mix =  0.700 |ddv_scf|^2 =  4.230E-10

      iter #   4 total cpu time :   145.1 secs   av.it.:  10.1
      thresh= 2.057E-06 alpha_mix =  0.700 |ddv_scf|^2 =  1.219E-12

      iter #   5 total cpu time :   147.7 secs   av.it.:  10.2
      thresh= 1.104E-07 alpha_mix =  0.700 |ddv_scf|^2 =  3.945E-14

      iter #   6 total cpu time :   150.3 secs   av.it.:  10.1
      thresh= 1.986E-08 alpha_mix =  0.700 |ddv_scf|^2 =  8.227E-16

     End of self-consistent calculation

     Convergence has been achieved 


     Representation #   4 modes #   5   6

     Self-consistent Calculation

      iter #   1 total cpu time :   152.2 secs   av.it.:   5.9
      thresh= 1.000E-02 alpha_mix =  0.700 |ddv_scf|^2 =  5.261E-07

      iter #   2 total cpu time :   154.8 secs   av.it.:  10.3
      thresh= 7.254E-05 alpha_mix =  0.700 |ddv_scf|^2 =  1.067E-07

      iter #   3 total cpu time :   157.6 secs   av.it.:   9.9
      thresh= 3.267E-05 alpha_mix =  0.700 |ddv_scf|^2 =  3.760E-10

      iter #   4 total cpu time :   160.5 secs   av.it.:  10.2
      thresh= 1.939E-06 alpha_mix =  0.700 |ddv_scf|^2 =  1.263E-12

      iter #   5 total cpu time :   163.3 secs   av.it.:  10.2
      thresh= 1.124E-07 alpha_mix =  0.700 |ddv_scf|^2 =  2.818E-14

      iter #   6 total cpu time :   166.0 secs   av.it.:  10.1
      thresh= 1.679E-08 alpha_mix =  0.700 |ddv_scf|^2 =  6.671E-16

     End of self-consistent calculation

     Convergence has been achieved 

     Number of q in the star =    6
     List of q in the star:
          1   0.000000000   0.666666667   0.000000000
          2  -0.666666667   0.000000000   0.000000000
          3   0.000000000  -0.666666667   0.000000000
          4   0.000000000   0.000000000   0.666666667
          5   0.000000000   0.000000000  -0.666666667
          6   0.666666667   0.000000000   0.000000000

     Diagonalizing the dynamical matrix

     q = (    0.000000000   0.666666667   0.000000000 ) 

 **************************************************************************
     freq (    1) =       4.090215 [THz] =     136.434885 [cm-1]
     freq (    2) =       4.090215 [THz] =     136.434885 [cm-1]
     freq (    3) =       9.191652 [THz] =     306.600508 [cm-1]
     freq (    4) =      13.978247 [THz] =     466.264118 [cm-1]
     freq (    5) =      13.978247 [THz] =     466.264118 [cm-1]
     freq (    6) =      14.171287 [THz] =     472.703237 [cm-1]
 **************************************************************************

     Mode symmetry, C_4v (4mm)  point group:

     freq (   1-   2) =        136.4  [cm-1]   --> E    G_5 D_5       
     freq (   3-   3) =        306.6  [cm-1]   --> A_1  G_1 D_1       
     freq (   4-   5) =        466.3  [cm-1]   --> E    G_5 D_5       
     freq (   6-   6) =        472.7  [cm-1]   --> B_2  G_4 D_2'      

     Calculation of q =    0.6666667  -0.0000000   0.6666667

     Parallelization info
     --------------------
     sticks:   dense  smooth     PW     G-vecs:    dense   smooth      PW
     Min          36      36     15                  410      410     117
     Max          37      37     16                  412      412     121
     Sum         295     295    121                 3287     3287     941

     Using Slab Decomposition


     Title: 
     --                                                                         


     bravais-lattice index     =            2
     lattice parameter (alat)  =      10.2620  a.u.
     unit-cell volume          =     270.1693 (a.u.)^3
     number of atoms/cell      =            2
     number of atomic types    =            1
     number of electrons       =         8.00
     number of Kohn-Sham states=            4
     kinetic-energy cutoff     =      20.0000  Ry
     charge density cutoff     =      80.0000  Ry
     Exchange-correlation= PBE
                           (   1   4   3   4   0   0   0)

     celldm(1)=  10.262000  celldm(2)=   0.000000  celldm(3)=   0.000000
     celldm(4)=   0.000000  celldm(5)=   0.000000  celldm(6)=   0.000000

     crystal axes: (cart. coord. in units of alat)
               a(1) = (  -0.500000   0.000000   0.500000 )  
               a(2) = (   0.000000   0.500000   0.500000 )  
               a(3) = (  -0.500000   0.500000   0.000000 )  

     reciprocal axes: (cart. coord. in units 2 pi/alat)
               b(1) = ( -1.000000 -1.000000  1.000000 )  
               b(2) = (  1.000000  1.000000  1.000000 )  
               b(3) = ( -1.000000  1.000000 -1.000000 )  


     PseudoPot. # 1 for Si read from file:
     ./Si_r.upf
     MD5 check sum: c84abb4b0aac9c93a8e9f74896432a0a
     Pseudo is Norm-conserving + core correction, Zval =  4.0
     Generated using ONCVPSP code by D. R. Hamann
     Using radial grid of 1528 points,  6 beta functions with: 
                l(1) =   0
                l(2) =   0
                l(3) =   1
                l(4) =   1
                l(5) =   2
                l(6) =   2

     atomic species   valence    mass     pseudopotential
        Si             4.00    28.08550     Si( 1.00)

     48 Sym. Ops., with inversion, found



   Cartesian axes

     site n.     atom                  positions (alat units)
         1           Si  tau(   1) = (   0.0000000   0.0000000   0.0000000  )
         2           Si  tau(   2) = (   0.2500000   0.2500000   0.2500000  )

     number of k points=  1020

     Number of k-points >= 100: set verbosity='high' to print them.

     Dense  grid:     3287 G-vectors     FFT dimensions: (  24,  24,  24)

     Estimated max dynamical RAM per process >       1.01 MB

     Estimated total dynamical RAM >       8.05 MB

     The potential is recalculated from file :
     ./_ph0/si.q_4/si.save/charge-density

     Starting wfcs are    8 atomic wfcs

     Band Structure Calculation
     Davidson diagonalization with overlap

     ethr =  1.25E-10,  avg # of iterations = 12.1

     total cpu time spent up to now is       14.7 secs

     End of band structure calculation

     Number of k-points >= 100: set verbosity='high' to print the bands.

     highest occupied level (ev):     6.2426

     Writing config to output data dir ./_ph0/si.q_4/si.save/

     --                                                                         

     bravais-lattice index     =            2
     lattice parameter (alat)  =      10.2620  a.u.
     unit-cell volume          =     270.1693 (a.u.)^3
     number of atoms/cell      =            2
     number of atomic types    =            1
     kinetic-energy cut-off    =      20.0000  Ry
     charge density cut-off    =      80.0000  Ry
     convergence threshold     =      1.0E-14
     beta                      =       0.7000
     number of iterations used =            4
     Exchange-correlation= PBE
                           (   1   4   3   4   0   0   0)


     celldm(1)=   10.26200  celldm(2)=    0.00000  celldm(3)=    0.00000
     celldm(4)=    0.00000  celldm(5)=    0.00000  celldm(6)=    0.00000

     crystal axes: (cart. coord. in units of alat)
               a(1) = ( -0.5000  0.0000  0.5000 )  
               a(2) = (  0.0000  0.5000  0.5000 )  
               a(3) = ( -0.5000  0.5000  0.0000 )  

     reciprocal axes: (cart. coord. in units 2 pi/alat)
               b(1) = ( -1.0000 -1.0000  1.0000 )  
               b(2) = (  1.0000  1.0000  1.0000 )  
               b(3) = ( -1.0000  1.0000 -1.0000 )  


     Atoms inside the unit cell: 

     Cartesian axes

     site n.  atom      mass           positions (alat units)
        1     Si  28.0855   tau(    1) = (    0.00000    0.00000    0.00000  )
        2     Si  28.0855   tau(    2) = (    0.25000    0.25000    0.25000  )

     Computing dynamical matrix for 
                    q = (   0.6666667  -0.0000000   0.6666667 )

      4 Sym.Ops. (no q -> -q+G )


     G cutoff =  213.3999  (    412 G-vectors)     FFT grid: ( 24, 24, 24)
     number of k points=  1020

     PseudoPot. # 1 for Si read from file:
     ./Si_r.upf
     MD5 check sum: c84abb4b0aac9c93a8e9f74896432a0a
     Pseudo is Norm-conserving + core correction, Zval =  4.0
     Generated using ONCVPSP code by D. R. Hamann
     Using radial grid of 1528 points,  6 beta functions with: 
                l(1) =   0
                l(2) =   0
                l(3) =   1
                l(4) =   1
                l(5) =   2
                l(6) =   2

     Mode symmetry, C_2v (mm2)  point group:


     Atomic displacements:
     There are    6 irreducible representations

     Representation     1      1 modes -  To be done

     Representation     2      1 modes -  To be done

     Representation     3      1 modes -  To be done

     Representation     4      1 modes -  To be done

     Representation     5      1 modes -  To be done

     Representation     6      1 modes -  To be done



     Alpha used in Ewald sum =   0.8000
     PHONON       :   2m37.63s CPU   2m52.64s WALL



     Representation #   1 mode #   1

     Self-consistent Calculation

      iter #   1 total cpu time :   174.5 secs   av.it.:   6.1
      thresh= 1.000E-02 alpha_mix =  0.700 |ddv_scf|^2 =  4.973E-05

      iter #   2 total cpu time :   176.8 secs   av.it.:   9.1
      thresh= 7.052E-04 alpha_mix =  0.700 |ddv_scf|^2 =  9.197E-05

      iter #   3 total cpu time :   179.1 secs   av.it.:   8.2
      thresh= 9.590E-04 alpha_mix =  0.700 |ddv_scf|^2 =  7.308E-08

      iter #   4 total cpu time :   181.6 secs   av.it.:   8.9
      thresh= 2.703E-05 alpha_mix =  0.700 |ddv_scf|^2 =  2.629E-09

      iter #   5 total cpu time :   184.0 secs   av.it.:   9.0
      thresh= 5.128E-06 alpha_mix =  0.700 |ddv_scf|^2 =  1.970E-11

      iter #   6 total cpu time :   186.5 secs   av.it.:   9.1
      thresh= 4.439E-07 alpha_mix =  0.700 |ddv_scf|^2 =  2.943E-13

      iter #   7 total cpu time :   189.5 secs   av.it.:   9.3
      thresh= 5.425E-08 alpha_mix =  0.700 |ddv_scf|^2 =  1.198E-13

      iter #   8 total cpu time :   191.8 secs   av.it.:   8.9
      thresh= 3.462E-08 alpha_mix =  0.700 |ddv_scf|^2 =  1.797E-14

      iter #   9 total cpu time :   194.1 secs   av.it.:   8.9
      thresh= 1.340E-08 alpha_mix =  0.700 |ddv_scf|^2 =  1.047E-14

      iter #  10 total cpu time :   196.1 secs   av.it.:   8.5
      thresh= 1.023E-08 alpha_mix =  0.700 |ddv_scf|^2 =  1.192E-16

     End of self-consistent calculation

     Convergence has been achieved 


     Representation #   2 mode #   2

     Self-consistent Calculation

      iter #   1 total cpu time :   198.2 secs   av.it.:   6.3
      thresh= 1.000E-02 alpha_mix =  0.700 |ddv_scf|^2 =  3.419E-05

      iter #   2 total cpu time :   200.8 secs   av.it.:   9.3
      thresh= 5.848E-04 alpha_mix =  0.700 |ddv_scf|^2 =  4.152E-05

      iter #   3 total cpu time :   203.2 secs   av.it.:   8.6
      thresh= 6.444E-04 alpha_mix =  0.700 |ddv_scf|^2 =  7.204E-07

      iter #   4 total cpu time :   205.6 secs   av.it.:   8.6
      thresh= 8.488E-05 alpha_mix =  0.700 |ddv_scf|^2 =  2.170E-09

      iter #   5 total cpu time :   207.7 secs   av.it.:   9.0
      thresh= 4.658E-06 alpha_mix =  0.700 |ddv_scf|^2 =  2.654E-11

      iter #   6 total cpu time :   209.8 secs   av.it.:   8.8
      thresh= 5.152E-07 alpha_mix =  0.700 |ddv_scf|^2 =  3.822E-13

      iter #   7 total cpu time :   211.9 secs   av.it.:   9.1
      thresh= 6.182E-08 alpha_mix =  0.700 |ddv_scf|^2 =  1.527E-13

      iter #   8 total cpu time :   213.9 secs   av.it.:   8.5
      thresh= 3.907E-08 alpha_mix =  0.700 |ddv_scf|^2 =  1.855E-14

      iter #   9 total cpu time :   215.9 secs   av.it.:   8.9
      thresh= 1.362E-08 alpha_mix =  0.700 |ddv_scf|^2 =  6.689E-16

     End of self-consistent calculation

     Convergence has been achieved 


     Representation #   3 mode #   3

     Self-consistent Calculation

      iter #   1 total cpu time :   217.6 secs   av.it.:   5.8
      thresh= 1.000E-02 alpha_mix =  0.700 |ddv_scf|^2 =  4.110E-06

      iter #   2 total cpu time :   219.7 secs   av.it.:   9.1
      thresh= 2.027E-04 alpha_mix =  0.700 |ddv_scf|^2 =  7.068E-07

      iter #   3 total cpu time :   221.7 secs   av.it.:   8.9
      thresh= 8.407E-05 alpha_mix =  0.700 |ddv_scf|^2 =  1.723E-09

      iter #   4 total cpu time :   223.7 secs   av.it.:   8.9
      thresh= 4.150E-06 alpha_mix =  0.700 |ddv_scf|^2 =  3.080E-12

      iter #   5 total cpu time :   225.7 secs   av.it.:   8.7
      thresh= 1.755E-07 alpha_mix =  0.700 |ddv_scf|^2 =  1.513E-13

      iter #   6 total cpu time :   227.6 secs   av.it.:   8.6
      thresh= 3.889E-08 alpha_mix =  0.700 |ddv_scf|^2 =  1.536E-15

     End of self-consistent calculation

     Convergence has been achieved 


     Representation #   4 mode #   4

     Self-consistent Calculation

      iter #   1 total cpu time :   229.1 secs   av.it.:   5.0
      thresh= 1.000E-02 alpha_mix =  0.700 |ddv_scf|^2 =  8.775E-08

      iter #   2 total cpu time :   231.2 secs   av.it.:   9.0
      thresh= 2.962E-05 alpha_mix =  0.700 |ddv_scf|^2 =  4.913E-09

      iter #   3 total cpu time :   233.2 secs   av.it.:   9.1
      thresh= 7.009E-06 alpha_mix =  0.700 |ddv_scf|^2 =  2.733E-11

      iter #   4 total cpu time :   235.2 secs   av.it.:   8.8
      thresh= 5.228E-07 alpha_mix =  0.700 |ddv_scf|^2 =  7.747E-13

      iter #   5 total cpu time :   237.2 secs   av.it.:   8.9
      thresh= 8.802E-08 alpha_mix =  0.700 |ddv_scf|^2 =  1.077E-14

      iter #   6 total cpu time :   239.2 secs   av.it.:   8.9
      thresh= 1.038E-08 alpha_mix =  0.700 |ddv_scf|^2 =  5.143E-17

     End of self-consistent calculation

     Convergence has been achieved 


     Representation #   5 mode #   5

     Self-consistent Calculation

      iter #   1 total cpu time :   241.0 secs   av.it.:   6.1
      thresh= 1.000E-02 alpha_mix =  0.700 |ddv_scf|^2 =  1.920E-05

      iter #   2 total cpu time :   243.2 secs   av.it.:   9.3
      thresh= 4.382E-04 alpha_mix =  0.700 |ddv_scf|^2 =  2.336E-05

      iter #   3 total cpu time :   245.1 secs   av.it.:   8.6
      thresh= 4.833E-04 alpha_mix =  0.700 |ddv_scf|^2 =  7.896E-09

      iter #   4 total cpu time :   247.1 secs   av.it.:   9.1
      thresh= 8.886E-06 alpha_mix =  0.700 |ddv_scf|^2 =  3.550E-10

      iter #   5 total cpu time :   249.2 secs   av.it.:   9.2
      thresh= 1.884E-06 alpha_mix =  0.700 |ddv_scf|^2 =  2.937E-12

      iter #   6 total cpu time :   251.3 secs   av.it.:   9.3
      thresh= 1.714E-07 alpha_mix =  0.700 |ddv_scf|^2 =  7.261E-14

      iter #   7 total cpu time :   253.4 secs   av.it.:   9.1
      thresh= 2.695E-08 alpha_mix =  0.700 |ddv_scf|^2 =  3.339E-15

     End of self-consistent calculation

     Convergence has been achieved 


     Representation #   6 mode #   6

     Self-consistent Calculation

      iter #   1 total cpu time :   255.1 secs   av.it.:   5.9
      thresh= 1.000E-02 alpha_mix =  0.700 |ddv_scf|^2 =  8.722E-06

      iter #   2 total cpu time :   257.4 secs   av.it.:   9.3
      thresh= 2.953E-04 alpha_mix =  0.700 |ddv_scf|^2 =  1.081E-05

      iter #   3 total cpu time :   259.4 secs   av.it.:   8.6
      thresh= 3.288E-04 alpha_mix =  0.700 |ddv_scf|^2 =  3.212E-09

      iter #   4 total cpu time :   261.5 secs   av.it.:   9.2
      thresh= 5.668E-06 alpha_mix =  0.700 |ddv_scf|^2 =  2.009E-10

      iter #   5 total cpu time :   263.6 secs   av.it.:   9.3
      thresh= 1.417E-06 alpha_mix =  0.700 |ddv_scf|^2 =  2.934E-12

      iter #   6 total cpu time :   265.6 secs   av.it.:   9.3
      thresh= 1.713E-07 alpha_mix =  0.700 |ddv_scf|^2 =  4.178E-14

      iter #   7 total cpu time :   267.7 secs   av.it.:   9.1
      thresh= 2.044E-08 alpha_mix =  0.700 |ddv_scf|^2 =  3.348E-15

     End of self-consistent calculation

     Convergence has been achieved 

     Number of q in the star =   12
     List of q in the star:
          1   0.666666667   0.000000000   0.666666667
          2   0.666666667   0.000000000  -0.666666667
          3  -0.666666667   0.000000000  -0.666666667
          4  -0.666666667   0.000000000   0.666666667
          5   0.000000000  -0.666666667   0.666666667
          6  -0.666666667   0.666666667   0.000000000
          7  -0.666666667  -0.666666667   0.000000000
          8   0.666666667   0.666666667   0.000000000
          9   0.666666667  -0.666666667   0.000000000
         10   0.000000000   0.666666667   0.666666667
         11   0.000000000   0.666666667  -0.666666667
         12   0.000000000  -0.666666667  -0.666666667

     Diagonalizing the dynamical matrix

     q = (    0.666666667  -0.000000000   0.666666667 ) 

 **************************************************************************
     freq (    1) =       4.296384 [THz] =     143.311958 [cm-1]
     freq (    2) =       6.443076 [THz] =     214.917881 [cm-1]
     freq (    3) =      10.135809 [THz] =     338.094188 [cm-1]
     freq (    4) =      11.365488 [THz] =     379.111857 [cm-1]
     freq (    5) =      13.951831 [THz] =     465.382978 [cm-1]
     freq (    6) =      14.510639 [THz] =     484.022827 [cm-1]
 **************************************************************************

     Mode symmetry, C_2v (mm2)  point group:

     freq (   1-   1) =        143.3  [cm-1]   --> B_1  D_3  S_3      
     freq (   2-   2) =        214.9  [cm-1]   --> B_2  D_4  S_4      
     freq (   3-   3) =        338.1  [cm-1]   --> A_1  D_1  S_1      
     freq (   4-   4) =        379.1  [cm-1]   --> B_2  D_4  S_4      
     freq (   5-   5) =        465.4  [cm-1]   --> A_2  D_2  S_2      
     freq (   6-   6) =        484.0  [cm-1]   --> A_1  D_1  S_1      

     init_run     :      0.04s CPU      0.04s WALL (       3 calls)
     electrons    :     13.40s CPU     14.52s WALL (       3 calls)

     Called by init_run:
     wfcinit      :      0.00s CPU      0.00s WALL (       3 calls)
     potinit      :      0.00s CPU      0.00s WALL (       3 calls)
     hinit0       :      0.02s CPU      0.02s WALL (       3 calls)

     Called by electrons:
     c_bands      :     13.40s CPU     14.51s WALL (       3 calls)
     v_of_rho     :      0.00s CPU      0.00s WALL (       4 calls)

     Called by c_bands:
     init_us_2    :      1.26s CPU      1.35s WALL (   61264 calls)
     init_us_2:cp :      1.19s CPU      1.28s WALL (   61264 calls)
     cegterg      :     11.39s CPU     12.34s WALL (    2336 calls)

     Called by *egterg:
     cdiaghg      :      1.47s CPU      1.60s WALL (   30718 calls)
     h_psi        :    161.01s CPU    174.39s WALL (  600303 calls)
     g_psi        :      0.04s CPU      0.04s WALL (   28382 calls)

     Called by h_psi:
     h_psi:calbec :     18.85s CPU     20.38s WALL (  600303 calls)
     vloc_psi     :    128.80s CPU    139.58s WALL (  600303 calls)
     add_vuspsi   :     11.22s CPU     12.12s WALL (  600303 calls)

     General routines
     calbec       :     34.81s CPU     37.83s WALL ( 1209928 calls)
     fft          :      0.42s CPU      0.45s WALL (    6857 calls)
     ffts         :      0.72s CPU      0.75s WALL (    7968 calls)
     fftw         :    145.95s CPU    159.11s WALL ( 5164260 calls)
     davcio       :      3.38s CPU      3.80s WALL (  275358 calls)

     Parallel routines

     PHONON       :   4m 6.22s CPU   4m27.76s WALL

     INITIALIZATION: 
     phq_setup    :      0.03s CPU      0.03s WALL (       4 calls)
     phq_init     :      1.19s CPU      1.23s WALL (       4 calls)

     phq_init     :      1.19s CPU      1.23s WALL (       4 calls)
     set_drhoc    :      0.04s CPU      0.04s WALL (      12 calls)
     init_vloc    :      0.00s CPU      0.00s WALL (       4 calls)
     init_us_1    :      0.01s CPU      0.01s WALL (       4 calls)
     init_us_2    :      1.26s CPU      1.35s WALL (   61264 calls)

     DYNAMICAL MATRIX:
     dynmat0      :      0.89s CPU      0.91s WALL (       4 calls)
     phqscf       :    224.51s CPU    243.10s WALL (       4 calls)
     dynmatrix    :      0.01s CPU      0.01s WALL (       4 calls)

     phqscf       :    224.51s CPU    243.10s WALL (       4 calls)
     solve_linter :    223.22s CPU    241.63s WALL (      16 calls)
     drhodv       :      1.28s CPU      1.40s WALL (      16 calls)

     dynmat0      :      0.89s CPU      0.91s WALL (       4 calls)
     dynmat_us    :      0.85s CPU      0.86s WALL (       4 calls)
     d2ionq       :      0.00s CPU      0.00s WALL (       4 calls)
     dynmatcc     :      0.04s CPU      0.04s WALL (       4 calls)

     dynmat_us    :      0.85s CPU      0.86s WALL (       4 calls)

     phqscf       :    224.51s CPU    243.10s WALL (       4 calls)
     solve_linter :    223.22s CPU    241.63s WALL (      16 calls)

     solve_linter :    223.22s CPU    241.63s WALL (      16 calls)
     dvqpsi_us    :      4.29s CPU      4.53s WALL (    7872 calls)
     sth_kernel   :    222.75s CPU    242.41s WALL (     121 calls)
     apply_dpot_b :     12.32s CPU     14.38s WALL (   46744 calls)
     ortho        :      0.99s CPU      1.05s WALL (   54616 calls)
     cgsolve      :    191.37s CPU    207.48s WALL (   54616 calls)
     incdrhoscf   :     14.00s CPU     15.05s WALL (   54400 calls)
     dv_of_drho   :      0.12s CPU      0.13s WALL (     175 calls)
     mix_pot      :      0.05s CPU      0.05s WALL (     121 calls)
     psymdvscf    :      0.71s CPU      0.74s WALL (     116 calls)

     dvqpsi_us    :      4.29s CPU      4.53s WALL (    7872 calls)
     dvqpsi_us_on :      1.46s CPU      1.54s WALL (    7872 calls)

     cgsolve      :    191.37s CPU    207.48s WALL (   54616 calls)
     ch_psi       :    179.99s CPU    194.97s WALL (  567249 calls)

     ch_psi       :    179.99s CPU    194.97s WALL (  567249 calls)
     h_psi        :    161.01s CPU    174.39s WALL (  600303 calls)
     last         :     26.33s CPU     28.62s WALL (  567249 calls)

     h_psi        :    161.01s CPU    174.39s WALL (  600303 calls)
     add_vuspsi   :     11.22s CPU     12.12s WALL (  600303 calls)

     incdrhoscf   :     14.00s CPU     15.05s WALL (   54400 calls)


      General routines
     calbec       :     34.81s CPU     37.83s WALL ( 1209928 calls)
     fft          :      0.42s CPU      0.45s WALL (    6857 calls)
     ffts         :      0.72s CPU      0.75s WALL (    7968 calls)
     fftw         :    145.95s CPU    159.11s WALL ( 5164260 calls)
     davcio       :      3.38s CPU      3.80s WALL (  275358 calls)
     write_rec    :      0.04s CPU      0.05s WALL (     137 calls)


     PHONON       :   4m 6.22s CPU   4m27.76s WALL


   This run was terminated on:   2:25:28   7Apr2023            

=------------------------------------------------------------------------------=
   JOB DONE.
=------------------------------------------------------------------------------=
