
     Program Q2R v.7.0 starts on  7Apr2023 at  2:29: 9 

     This program is part of the open-source Quantum ESPRESSO suite
     for quantum simulation of materials; please cite
         "P. Giannozzi et al., J. Phys.:Condens. Matter 21 395502 (2009);
         "P. Giannozzi et al., J. Phys.:Condens. Matter 29 465901 (2017);
         "P. Giannozzi et al., J. Chem. Phys. 152 154105 (2020);
          URL http://www.quantum-espresso.org", 
     in publications or presentations arising from this work. More details at
     http://www.quantum-espresso.org/quote

     Parallel version (MPI), running on     1 processors

     MPI processes distributed on     1 nodes
     4044 MiB available memory on the printing compute node when the environment starts


     reading grid info from file si.dyn0    
  reading force constants from file si.dyn1
 macroscopic fields = T
  12.98291   0.00000   0.00000
   0.00000  12.98291  -0.00000
   0.00000  -0.00000  12.98291
  na=            1
  -0.00778   0.00000   0.00000
   0.00000  -0.00778  -0.00000
   0.00000  -0.00000  -0.00778
  na=            2
  -0.00778   0.00000   0.00000
   0.00000  -0.00778   0.00000
   0.00000   0.00000  -0.00778
Norm of the difference between old and new effective charges:    0.01905701454416417959
  nqs=            1
 q=   0.00000000  0.00000000  0.00000000
  reading force constants from file si.dyn2
  nqs=            8
 q=  -0.33333333  0.33333333 -0.33333333
 q=   0.33333333  0.33333333 -0.33333333
 q=   0.33333333  0.33333333  0.33333333
 q=  -0.33333333  0.33333333  0.33333333
 q=   0.33333333 -0.33333333  0.33333333
 q=  -0.33333333 -0.33333333 -0.33333333
 q=   0.33333333 -0.33333333 -0.33333333
 q=  -0.33333333 -0.33333333  0.33333333
  reading force constants from file si.dyn3
  nqs=            6
 q=   0.00000000  0.66666667  0.00000000
 q=  -0.66666667  0.00000000  0.00000000
 q=   0.00000000 -0.66666667  0.00000000
 q=   0.00000000  0.00000000  0.66666667
 q=   0.00000000  0.00000000 -0.66666667
 q=   0.66666667  0.00000000  0.00000000
  reading force constants from file si.dyn4
  nqs=           12
 q=   0.66666667  0.00000000  0.66666667
 q=   0.66666667  0.00000000 -0.66666667
 q=  -0.66666667  0.00000000 -0.66666667
 q=  -0.66666667  0.00000000  0.66666667
 q=   0.00000000 -0.66666667  0.66666667
 q=  -0.66666667  0.66666667  0.00000000
 q=  -0.66666667 -0.66666667  0.00000000
 q=   0.66666667  0.66666667  0.00000000
 q=   0.66666667 -0.66666667  0.00000000
 q=   0.00000000  0.66666667  0.66666667
 q=   0.00000000  0.66666667 -0.66666667
 q=   0.00000000 -0.66666667 -0.66666667

      q-space grid ok, #points =   27

      fft-check success (sum of imaginary terms < 10^-12)

     Q2R          :      0.00s CPU      0.01s WALL


   This run was terminated on:   2:29: 9   7Apr2023            

=------------------------------------------------------------------------------=
   JOB DONE.
=------------------------------------------------------------------------------=
