
     Program PWSCF v.7.0 starts on  7Apr2023 at  2:20: 7 

     This program is part of the open-source Quantum ESPRESSO suite
     for quantum simulation of materials; please cite
         "P. Giannozzi et al., J. Phys.:Condens. Matter 21 395502 (2009);
         "P. Giannozzi et al., J. Phys.:Condens. Matter 29 465901 (2017);
         "P. Giannozzi et al., J. Chem. Phys. 152 154105 (2020);
          URL http://www.quantum-espresso.org", 
     in publications or presentations arising from this work. More details at
     http://www.quantum-espresso.org/quote

     Parallel version (MPI), running on     8 processors

     MPI processes distributed on     1 nodes
     R & G space division:  proc/nbgrp/npool/nimage =       8
     4473 MiB available memory on the printing compute node when the environment starts

     Waiting for input...
     Reading input from standard input

     Current dimensions of program PWSCF are:
     Max number of different atomic species (ntypx) = 10
     Max number of k-points (npk) =  40000
     Max angular momentum in pseudopotentials (lmaxx) =  4

     Subspace diagonalization in iterative solution of the eigenvalue problem:
     a serial algorithm will be used


     Parallelization info
     --------------------
     sticks:   dense  smooth     PW     G-vecs:    dense   smooth      PW
     Min          36      36     12                  410      410      80
     Max          37      37     13                  412      412      81
     Sum         295     295     97                 3287     3287     645

     Using Slab Decomposition



     bravais-lattice index     =            2
     lattice parameter (alat)  =      10.2620  a.u.
     unit-cell volume          =     270.1693 (a.u.)^3
     number of atoms/cell      =            2
     number of atomic types    =            1
     number of electrons       =         8.00
     number of Kohn-Sham states=            4
     kinetic-energy cutoff     =      20.0000  Ry
     charge density cutoff     =      80.0000  Ry
     scf convergence threshold =      1.0E-13
     mixing beta               =       0.7000
     number of iterations used =            8  plain     mixing
     Exchange-correlation= PBE
                           (   1   4   3   4   0   0   0)

     celldm(1)=  10.262000  celldm(2)=   0.000000  celldm(3)=   0.000000
     celldm(4)=   0.000000  celldm(5)=   0.000000  celldm(6)=   0.000000

     crystal axes: (cart. coord. in units of alat)
               a(1) = (  -0.500000   0.000000   0.500000 )  
               a(2) = (   0.000000   0.500000   0.500000 )  
               a(3) = (  -0.500000   0.500000   0.000000 )  

     reciprocal axes: (cart. coord. in units 2 pi/alat)
               b(1) = ( -1.000000 -1.000000  1.000000 )  
               b(2) = (  1.000000  1.000000  1.000000 )  
               b(3) = ( -1.000000  1.000000 -1.000000 )  


     PseudoPot. # 1 for Si read from file:
     ./Si_r.upf
     MD5 check sum: c84abb4b0aac9c93a8e9f74896432a0a
     Pseudo is Norm-conserving + core correction, Zval =  4.0
     Generated using ONCVPSP code by D. R. Hamann
     Using radial grid of 1528 points,  6 beta functions with: 
                l(1) =   0
                l(2) =   0
                l(3) =   1
                l(4) =   1
                l(5) =   2
                l(6) =   2

     atomic species   valence    mass     pseudopotential
        Si             4.00    28.08550     Si( 1.00)

     48 Sym. Ops., with inversion, found (24 have fractional translation)



   Cartesian axes

     site n.     atom                  positions (alat units)
         1           Si  tau(   1) = (   0.0000000   0.0000000   0.0000000  )
         2           Si  tau(   2) = (   0.2500000   0.2500000   0.2500000  )

     number of k points=    72
                       cart. coord. in units 2pi/alat
        k(    1) = (   0.0000000   0.0000000   0.0000000), wk =   0.0011574
        k(    2) = (  -0.0833333   0.0833333  -0.0833333), wk =   0.0092593
        k(    3) = (  -0.1666667   0.1666667  -0.1666667), wk =   0.0092593
        k(    4) = (  -0.2500000   0.2500000  -0.2500000), wk =   0.0092593
        k(    5) = (  -0.3333333   0.3333333  -0.3333333), wk =   0.0092593
        k(    6) = (  -0.4166667   0.4166667  -0.4166667), wk =   0.0092593
        k(    7) = (   0.5000000  -0.5000000   0.5000000), wk =   0.0046296
        k(    8) = (   0.0000000   0.1666667   0.0000000), wk =   0.0069444
        k(    9) = (  -0.0833333   0.2500000  -0.0833333), wk =   0.0277778
        k(   10) = (  -0.1666667   0.3333333  -0.1666667), wk =   0.0277778
        k(   11) = (  -0.2500000   0.4166667  -0.2500000), wk =   0.0277778
        k(   12) = (  -0.3333333   0.5000000  -0.3333333), wk =   0.0277778
        k(   13) = (   0.5833333  -0.4166667   0.5833333), wk =   0.0277778
        k(   14) = (   0.5000000  -0.3333333   0.5000000), wk =   0.0277778
        k(   15) = (   0.4166667  -0.2500000   0.4166667), wk =   0.0277778
        k(   16) = (   0.3333333  -0.1666667   0.3333333), wk =   0.0277778
        k(   17) = (   0.2500000  -0.0833333   0.2500000), wk =   0.0277778
        k(   18) = (   0.1666667  -0.0000000   0.1666667), wk =   0.0138889
        k(   19) = (   0.0000000   0.3333333   0.0000000), wk =   0.0069444
        k(   20) = (  -0.0833333   0.4166667  -0.0833333), wk =   0.0277778
        k(   21) = (  -0.1666667   0.5000000  -0.1666667), wk =   0.0277778
        k(   22) = (  -0.2500000   0.5833333  -0.2500000), wk =   0.0277778
        k(   23) = (   0.6666667  -0.3333333   0.6666667), wk =   0.0277778
        k(   24) = (   0.5833333  -0.2500000   0.5833333), wk =   0.0277778
        k(   25) = (   0.5000000  -0.1666667   0.5000000), wk =   0.0277778
        k(   26) = (   0.4166667  -0.0833333   0.4166667), wk =   0.0277778
        k(   27) = (   0.3333333   0.0000000   0.3333333), wk =   0.0138889
        k(   28) = (   0.0000000   0.5000000   0.0000000), wk =   0.0069444
        k(   29) = (  -0.0833333   0.5833333  -0.0833333), wk =   0.0277778
        k(   30) = (  -0.1666667   0.6666667  -0.1666667), wk =   0.0277778
        k(   31) = (   0.7500000  -0.2500000   0.7500000), wk =   0.0277778
        k(   32) = (   0.6666667  -0.1666667   0.6666667), wk =   0.0277778
        k(   33) = (   0.5833333  -0.0833333   0.5833333), wk =   0.0277778
        k(   34) = (   0.5000000   0.0000000   0.5000000), wk =   0.0138889
        k(   35) = (   0.0000000   0.6666667   0.0000000), wk =   0.0069444
        k(   36) = (  -0.0833333   0.7500000  -0.0833333), wk =   0.0277778
        k(   37) = (   0.8333333  -0.1666667   0.8333333), wk =   0.0277778
        k(   38) = (   0.7500000  -0.0833333   0.7500000), wk =   0.0277778
        k(   39) = (   0.6666667  -0.0000000   0.6666667), wk =   0.0138889
        k(   40) = (   0.0000000   0.8333333   0.0000000), wk =   0.0069444
        k(   41) = (   0.9166667  -0.0833333   0.9166667), wk =   0.0277778
        k(   42) = (   0.8333333   0.0000000   0.8333333), wk =   0.0138889
        k(   43) = (   0.0000000  -1.0000000   0.0000000), wk =   0.0034722
        k(   44) = (  -0.1666667   0.3333333   0.0000000), wk =   0.0277778
        k(   45) = (  -0.2500000   0.4166667  -0.0833333), wk =   0.0555556
        k(   46) = (  -0.3333333   0.5000000  -0.1666667), wk =   0.0555556
        k(   47) = (   0.5833333  -0.4166667   0.7500000), wk =   0.0555556
        k(   48) = (   0.5000000  -0.3333333   0.6666667), wk =   0.0277778
        k(   49) = (  -0.1666667   0.5000000   0.0000000), wk =   0.0277778
        k(   50) = (  -0.2500000   0.5833333  -0.0833333), wk =   0.0555556
        k(   51) = (   0.6666667  -0.3333333   0.8333333), wk =   0.0555556
        k(   52) = (   0.5833333  -0.2500000   0.7500000), wk =   0.0555556
        k(   53) = (   0.5000000  -0.1666667   0.6666667), wk =   0.0555556
        k(   54) = (   0.4166667  -0.0833333   0.5833333), wk =   0.0555556
        k(   55) = (   0.3333333   0.0000000   0.5000000), wk =   0.0277778
        k(   56) = (  -0.1666667   0.6666667  -0.0000000), wk =   0.0277778
        k(   57) = (   0.7500000  -0.2500000   0.9166667), wk =   0.0555556
        k(   58) = (   0.6666667  -0.1666667   0.8333333), wk =   0.0555556
        k(   59) = (   0.5833333  -0.0833333   0.7500000), wk =   0.0555556
        k(   60) = (   0.5000000   0.0000000   0.6666667), wk =   0.0277778
        k(   61) = (   0.8333333  -0.1666667   1.0000000), wk =   0.0277778
        k(   62) = (   0.7500000  -0.0833333   0.9166667), wk =   0.0555556
        k(   63) = (   0.6666667   0.0000000   0.8333333), wk =   0.0277778
        k(   64) = (  -0.1666667  -1.0000000  -0.0000000), wk =   0.0138889
        k(   65) = (   0.6666667  -0.3333333   1.0000000), wk =   0.0277778
        k(   66) = (   0.5833333  -0.2500000   0.9166667), wk =   0.0555556
        k(   67) = (   0.5000000  -0.1666667   0.8333333), wk =   0.0277778
        k(   68) = (   0.6666667  -0.1666667   1.0000000), wk =   0.0277778
        k(   69) = (   0.5833333  -0.0833333   0.9166667), wk =   0.0555556
        k(   70) = (   0.5000000   0.0000000   0.8333333), wk =   0.0277778
        k(   71) = (  -0.3333333  -1.0000000   0.0000000), wk =   0.0138889
        k(   72) = (  -0.5000000  -1.0000000   0.0000000), wk =   0.0069444

     Dense  grid:     3287 G-vectors     FFT dimensions: (  24,  24,  24)

     Estimated max dynamical RAM per process >       1.28 MB

     Estimated total dynamical RAM >      10.26 MB

     Initial potential from superposition of free atoms

     starting charge       7.9988, renormalised to       8.0000
     Starting wfcs are    8 randomized atomic wfcs

     total cpu time spent up to now is        0.2 secs

     Self-consistent Calculation

     iteration #  1     ecut=    20.00 Ry     beta= 0.70
     Davidson diagonalization with overlap
     ethr =  1.00E-02,  avg # of iterations =  2.0

     Threshold (ethr) on eigenvalues was too large:
     Diagonalizing with lowered threshold

     Davidson diagonalization with overlap
     ethr =  5.73E-04,  avg # of iterations =  2.0

     total cpu time spent up to now is        0.4 secs

     total energy              =     -16.92028990 Ry
     estimated scf accuracy    <       0.05358637 Ry

     iteration #  2     ecut=    20.00 Ry     beta= 0.70
     Davidson diagonalization with overlap
     ethr =  6.70E-04,  avg # of iterations =  1.0

     total cpu time spent up to now is        0.5 secs

     total energy              =     -16.92182189 Ry
     estimated scf accuracy    <       0.00285670 Ry

     iteration #  3     ecut=    20.00 Ry     beta= 0.70
     Davidson diagonalization with overlap
     ethr =  3.57E-05,  avg # of iterations =  2.2

     total cpu time spent up to now is        0.6 secs

     total energy              =     -16.92239088 Ry
     estimated scf accuracy    <       0.00006290 Ry

     iteration #  4     ecut=    20.00 Ry     beta= 0.70
     Davidson diagonalization with overlap
     ethr =  7.86E-07,  avg # of iterations =  4.7

     total cpu time spent up to now is        0.7 secs

     total energy              =     -16.92246256 Ry
     estimated scf accuracy    <       0.00000019 Ry

     iteration #  5     ecut=    20.00 Ry     beta= 0.70
     Davidson diagonalization with overlap
     ethr =  2.40E-09,  avg # of iterations =  6.8

     total cpu time spent up to now is        0.9 secs

     total energy              =     -16.92246397 Ry
     estimated scf accuracy    <       0.00000002 Ry

     iteration #  6     ecut=    20.00 Ry     beta= 0.70
     Davidson diagonalization with overlap
     ethr =  3.02E-10,  avg # of iterations =  2.4

     total cpu time spent up to now is        1.0 secs

     total energy              =     -16.92246398 Ry
     estimated scf accuracy    <          7.4E-09 Ry

     iteration #  7     ecut=    20.00 Ry     beta= 0.70
     Davidson diagonalization with overlap
     ethr =  9.30E-11,  avg # of iterations =  2.0

     total cpu time spent up to now is        1.1 secs

     total energy              =     -16.92246398 Ry
     estimated scf accuracy    <          6.6E-11 Ry

     iteration #  8     ecut=    20.00 Ry     beta= 0.70
     Davidson diagonalization with overlap
     ethr =  8.23E-13,  avg # of iterations =  5.0

     total cpu time spent up to now is        1.2 secs

     total energy              =     -16.92246398 Ry
     estimated scf accuracy    <          6.2E-12 Ry

     iteration #  9     ecut=    20.00 Ry     beta= 0.70
     Davidson diagonalization with overlap
     ethr =  1.00E-13,  avg # of iterations =  2.9

     total cpu time spent up to now is        1.3 secs

     total energy              =     -16.92246398 Ry
     estimated scf accuracy    <          2.4E-12 Ry

     iteration # 10     ecut=    20.00 Ry     beta= 0.70
     Davidson diagonalization with overlap
     ethr =  1.00E-13,  avg # of iterations =  1.0

     total cpu time spent up to now is        1.4 secs

     End of self-consistent calculation

          k = 0.0000 0.0000 0.0000 (   411 PWs)   bands (ev):

    -5.7330   6.2426   6.2426   6.2426

          k =-0.0833 0.0833-0.0833 (   405 PWs)   bands (ev):

    -5.6419   5.3783   6.0973   6.0973

          k =-0.1667 0.1667-0.1667 (   396 PWs)   bands (ev):

    -5.3716   3.8511   5.7881   5.7881

          k =-0.2500 0.2500-0.2500 (   401 PWs)   bands (ev):

    -4.9335   2.3028   5.4758   5.4758

          k =-0.3333 0.3333-0.3333 (   407 PWs)   bands (ev):

    -4.3567   0.8943   5.2334   5.2334

          k =-0.4167 0.4167-0.4167 (   413 PWs)   bands (ev):

    -3.7366  -0.2365   5.0836   5.0836

          k = 0.5000-0.5000 0.5000 (   410 PWs)   bands (ev):

    -3.4026  -0.7420   5.0333   5.0333

          k = 0.0000 0.1667 0.0000 (   399 PWs)   bands (ev):

    -5.6113   5.5443   5.8091   5.8091

          k =-0.0833 0.2500-0.0833 (   401 PWs)   bands (ev):

    -5.4005   4.3057   5.4424   5.6346

          k =-0.1667 0.3333-0.1667 (   404 PWs)   bands (ev):

    -5.0169   2.8008   5.1268   5.3091

          k =-0.2500 0.4167-0.2500 (   405 PWs)   bands (ev):

    -4.4809   1.3629   4.9157   4.9539

          k =-0.3333 0.5000-0.3333 (   411 PWs)   bands (ev):

    -3.8556   0.1314   4.6561   4.8252

          k = 0.5833-0.4167 0.5833 (   407 PWs)   bands (ev):

    -3.3646  -0.6387   4.4507   4.8562

          k = 0.5000-0.3333 0.5000 (   407 PWs)   bands (ev):

    -3.4855  -0.4609   4.3550   4.9998

          k = 0.4167-0.2500 0.4167 (   409 PWs)   bands (ev):

    -4.0674   0.5120   4.3823   5.2405

          k = 0.3333-0.1667 0.3333 (   404 PWs)   bands (ev):

    -4.6753   1.8278   4.5429   5.5526

          k = 0.2500-0.0833 0.2500 (   399 PWs)   bands (ev):

    -5.1637   3.2883   4.8484   5.8850

          k = 0.1667-0.0000 0.1667 (   399 PWs)   bands (ev):

    -5.4910   4.6449   5.3728   6.1228

          k = 0.0000 0.3333 0.0000 (   399 PWs)   bands (ev):

    -5.2489   4.1953   5.0414   5.0414

          k =-0.0833 0.4167-0.0833 (   404 PWs)   bands (ev):

    -4.9221   3.1056   4.6932   4.7051

          k =-0.1667 0.5000-0.1667 (   405 PWs)   bands (ev):

    -4.4341   1.7928   4.2396   4.4855

          k =-0.2500 0.5833-0.2500 (   412 PWs)   bands (ev):

    -3.8266   0.5567   3.7992   4.4009

          k = 0.6667-0.3333 0.6667 (   409 PWs)   bands (ev):

    -3.2429  -0.3780   3.4539   4.4549

          k = 0.5833-0.2500 0.5833 (   406 PWs)   bands (ev):

    -3.1284  -0.5377   3.2399   4.6393

          k = 0.5000-0.1667 0.5000 (   410 PWs)   bands (ev):

    -3.6278   0.2213   3.1831   4.9353

          k = 0.4167-0.0833 0.4167 (   404 PWs)   bands (ev):

    -4.2520   1.3694   3.3283   5.3054

          k = 0.3333 0.0000 0.3333 (   397 PWs)   bands (ev):

    -4.7837   2.5129   3.8199   5.6720

          k = 0.0000 0.5000 0.0000 (   415 PWs)   bands (ev):

    -4.6518   2.7133   4.3411   4.3411

          k =-0.0833 0.5833-0.0833 (   413 PWs)   bands (ev):

    -4.2153   1.8017   3.8755   4.0938

          k =-0.1667 0.6667-0.1667 (   412 PWs)   bands (ev):

    -3.6400   0.7714   3.2430   3.9865

          k = 0.7500-0.2500 0.7500 (   412 PWs)   bands (ev):

    -3.0161  -0.1551   2.6960   4.0250

          k = 0.6667-0.1667 0.6667 (   405 PWs)   bands (ev):

    -2.6919  -0.5694   2.3330   4.2054

          k = 0.5833-0.0833 0.5833 (   406 PWs)   bands (ev):

    -3.0679  -0.0756   2.2134   4.5112

          k = 0.5000 0.0000 0.5000 (   407 PWs)   bands (ev):

    -3.6899   0.7473   2.4779   4.9048

          k = 0.0000 0.6667 0.0000 (   419 PWs)   bands (ev):

    -3.8297   1.2171   3.8120   3.8120

          k =-0.0833 0.7500-0.0833 (   413 PWs)   bands (ev):

    -3.2951   0.4309   3.3261   3.6689

          k = 0.8333-0.1667 0.8333 (   411 PWs)   bands (ev):

    -2.6660  -0.3379   2.5980   3.6750

          k = 0.7500-0.0833 0.7500 (   410 PWs)   bands (ev):

    -2.1968  -0.8290   2.0190   3.8291

          k = 0.6667-0.0000 0.6667 (   403 PWs)   bands (ev):

    -2.4695  -0.5427   1.8172   4.1185

          k = 0.0000 0.8333 0.0000 (   404 PWs)   bands (ev):

    -2.7997  -0.2340   3.4861   3.4861

          k = 0.9167-0.0833 0.9167 (   413 PWs)   bands (ev):

    -2.1868  -0.9227   3.0546   3.4523

          k = 0.8333 0.0000 0.8333 (   411 PWs)   bands (ev):

    -1.7305  -1.3273   2.3841   3.5697

          k = 0.0000-1.0000 0.0000 (   412 PWs)   bands (ev):

    -1.5895  -1.5895   3.3764   3.3764

          k =-0.1667 0.3333 0.0000 (   398 PWs)   bands (ev):

    -5.1319   3.5048   4.5995   5.5304

          k =-0.2500 0.4167-0.0833 (   404 PWs)   bands (ev):

    -4.6958   2.2613   4.0658   5.2533

          k =-0.3333 0.5000-0.1667 (   406 PWs)   bands (ev):

    -4.1206   0.9580   3.7959   4.9241

          k = 0.5833-0.4167 0.7500 (   407 PWs)   bands (ev):

    -3.4988  -0.1327   3.6684   4.6763

          k = 0.5000-0.3333 0.6667 (   402 PWs)   bands (ev):

    -3.1601  -0.6311   3.6332   4.5842

          k =-0.1667 0.5000 0.0000 (   411 PWs)   bands (ev):

    -4.5413   2.3094   3.9017   4.6055

          k =-0.2500 0.5833-0.0833 (   409 PWs)   bands (ev):

    -4.0087   1.2576   3.3639   4.3161

          k = 0.6667-0.3333 0.8333 (   411 PWs)   bands (ev):

    -3.3833   0.2020   3.0071   4.1045

          k = 0.5833-0.2500 0.7500 (   409 PWs)   bands (ev):

    -2.8862  -0.5047   2.7611   4.0864

          k = 0.5000-0.1667 0.6667 (   407 PWs)   bands (ev):

    -3.0220  -0.3173   2.6427   4.2596

          k = 0.4167-0.0833 0.5833 (   411 PWs)   bands (ev):

    -3.6125   0.5600   2.7167   4.5774

          k = 0.3333 0.0000 0.5000 (   410 PWs)   bands (ev):

    -4.2150   1.5401   3.1322   4.9608

          k =-0.1667 0.6667-0.0000 (   415 PWs)   bands (ev):

    -3.7312   1.0421   3.3906   3.8187

          k = 0.7500-0.2500 0.9167 (   410 PWs)   bands (ev):

    -3.1254   0.2059   2.8026   3.6013

          k = 0.6667-0.1667 0.8333 (   410 PWs)   bands (ev):

    -2.5358  -0.5095   2.2813   3.6094

          k = 0.5833-0.0833 0.7500 (   405 PWs)   bands (ev):

    -2.4648  -0.5800   1.9924   3.8084

          k = 0.5000 0.0000 0.6667 (   401 PWs)   bands (ev):

    -3.0022   0.0106   2.0794   4.1546

          k = 0.8333-0.1667 1.0000 (   414 PWs)   bands (ev):

    -2.7232  -0.2713   3.1061   3.3028

          k = 0.7500-0.0833 0.9167 (   411 PWs)   bands (ev):

    -2.0939  -0.9144   2.4776   3.2588

          k = 0.6667 0.0000 0.8333 (   410 PWs)   bands (ev):

    -1.9392  -1.0276   1.9794   3.4563

          k =-0.1667-1.0000-0.0000 (   414 PWs)   bands (ev):

    -1.5518  -1.5518   3.0705   3.0705

          k = 0.6667-0.3333 1.0000 (   407 PWs)   bands (ev):

    -3.4446   0.5837   2.6608   3.9364

          k = 0.5833-0.2500 0.9167 (   409 PWs)   bands (ev):

    -2.8203  -0.1865   2.3133   3.5988

          k = 0.5000-0.1667 0.8333 (   406 PWs)   bands (ev):

    -2.4599  -0.6154   2.2203   3.4692

          k = 0.6667-0.1667 1.0000 (   404 PWs)   bands (ev):

    -2.5089  -0.4152   2.4616   3.0809

          k = 0.5833-0.0833 0.9167 (   405 PWs)   bands (ev):

    -1.9856  -0.9218   2.1459   2.9264

          k = 0.5000 0.0000 0.8333 (   406 PWs)   bands (ev):

    -2.2172  -0.6918   2.0210   3.1517

          k =-0.3333-1.0000 0.0000 (   406 PWs)   bands (ev):

    -1.4697  -1.4697   2.5851   2.5851

          k =-0.5000-1.0000 0.0000 (   412 PWs)   bands (ev):

    -1.4259  -1.4259   2.3773   2.3773

     highest occupied level (ev):     6.2426

!    total energy              =     -16.92246398 Ry
     estimated scf accuracy    <          1.4E-14 Ry

     The total energy is the sum of the following terms:
     one-electron contribution =       4.96482514 Ry
     hartree contribution      =       1.09395032 Ry
     xc contribution           =      -6.18358424 Ry
     ewald contribution        =     -16.79765520 Ry

     convergence has been achieved in  10 iterations

     Writing all to output data dir ./si.save/

     init_run     :      0.06s CPU      0.10s WALL (       1 calls)
     electrons    :      1.09s CPU      1.20s WALL (       1 calls)

     Called by init_run:
     wfcinit      :      0.05s CPU      0.07s WALL (       1 calls)
     potinit      :      0.00s CPU      0.01s WALL (       1 calls)
     hinit0       :      0.01s CPU      0.01s WALL (       1 calls)

     Called by electrons:
     c_bands      :      0.98s CPU      1.05s WALL (      11 calls)
     sum_band     :      0.10s CPU      0.12s WALL (      11 calls)
     v_of_rho     :      0.01s CPU      0.01s WALL (      11 calls)
     mix_rho      :      0.00s CPU      0.00s WALL (      11 calls)

     Called by c_bands:
     init_us_2    :      0.03s CPU      0.03s WALL (    1656 calls)
     init_us_2:cp :      0.03s CPU      0.03s WALL (    1656 calls)
     cegterg      :      0.90s CPU      0.97s WALL (     792 calls)

     Called by *egterg:
     cdiaghg      :      0.08s CPU      0.09s WALL (    3012 calls)
     h_psi        :      0.75s CPU      0.80s WALL (    3156 calls)
     g_psi        :      0.00s CPU      0.00s WALL (    2292 calls)

     Called by h_psi:
     h_psi:calbec :      0.08s CPU      0.09s WALL (    3156 calls)
     vloc_psi     :      0.60s CPU      0.64s WALL (    3156 calls)
     add_vuspsi   :      0.05s CPU      0.06s WALL (    3156 calls)

     General routines
     calbec       :      0.08s CPU      0.09s WALL (    3156 calls)
     fft          :      0.01s CPU      0.01s WALL (     111 calls)
     ffts         :      0.00s CPU      0.00s WALL (      11 calls)
     fftw         :      0.64s CPU      0.69s WALL (   24688 calls)

     Parallel routines

     PWSCF        :      1.23s CPU      1.44s WALL


   This run was terminated on:   2:20: 8   7Apr2023            

=------------------------------------------------------------------------------=
   JOB DONE.
=------------------------------------------------------------------------------=
