
     Program PHONON v.7.0 starts on 26Mar2023 at  1:37:52 

     This program is part of the open-source Quantum ESPRESSO suite
     for quantum simulation of materials; please cite
         "P. Giannozzi et al., J. Phys.:Condens. Matter 21 395502 (2009);
         "P. Giannozzi et al., J. Phys.:Condens. Matter 29 465901 (2017);
         "P. Giannozzi et al., J. Chem. Phys. 152 154105 (2020);
          URL http://www.quantum-espresso.org", 
     in publications or presentations arising from this work. More details at
     http://www.quantum-espresso.org/quote

     Parallel version (MPI), running on     8 processors

     MPI processes distributed on     1 nodes
     R & G space division:  proc/nbgrp/npool/nimage =       8
     4420 MiB available memory on the printing compute node when the environment starts

     Waiting for input...
     Reading input from standard input

     Reading xml data from directory:

     ./C2H2.save/

     IMPORTANT: XC functional enforced from input :
     Exchange-correlation= PBE
                           (   1   4   3   4   0   0   0)
     Any further DFT definition will be discarded
     Please, verify this is what you really want


     Parallelization info
     --------------------
     sticks:   dense  smooth     PW     G-vecs:    dense   smooth      PW
     Min          47      47     15                 5907     5907    1023
     Max          48      48     16                 5932     5932    1044
     Sum         379     379    121                47317    47317    8263

     Using Slab Decomposition

     Reading collected, re-writing distributed wavefunctions


     Dynamical matrices for (12,12, 1)  uniform grid of q-points
     (  43 q-points):
       N         xq(1)         xq(2)         xq(3) 
       1   0.000000000   0.000000000   0.000000000
       2   0.000000000   0.096225045   0.000000000
       3   0.000000000   0.192450090   0.000000000
       4   0.000000000   0.288675135   0.000000000
       5   0.000000000   0.384900179   0.000000000
       6   0.000000000   0.481125224   0.000000000
       7   0.000000000  -0.577350269   0.000000000
       8   0.083333333   0.048112522   0.000000000
       9   0.083333333   0.144337567   0.000000000
      10   0.083333333   0.240562612   0.000000000
      11   0.083333333   0.336787657   0.000000000
      12   0.083333333   0.433012702   0.000000000
      13   0.083333333   0.529237747   0.000000000
      14   0.166666667   0.096225045   0.000000000
      15   0.166666667   0.192450090   0.000000000
      16   0.166666667   0.288675135   0.000000000
      17   0.166666667   0.384900179   0.000000000
      18   0.166666667   0.481125224   0.000000000
      19   0.166666667   0.577350269   0.000000000
      20   0.166666667  -0.000000000   0.000000000
      21   0.250000000   0.144337567   0.000000000
      22   0.250000000   0.240562612   0.000000000
      23   0.250000000   0.336787657   0.000000000
      24   0.250000000   0.433012702   0.000000000
      25   0.250000000   0.529237747   0.000000000
      26   0.250000000  -0.048112522   0.000000000
      27   0.333333333   0.192450090   0.000000000
      28   0.333333333   0.288675135   0.000000000
      29   0.333333333   0.384900179   0.000000000
      30   0.333333333   0.481125224   0.000000000
      31   0.333333333   0.577350269   0.000000000
      32   0.333333333  -0.096225045   0.000000000
      33   0.333333333   0.000000000   0.000000000
      34   0.416666667   0.240562612   0.000000000
      35   0.416666667   0.336787657   0.000000000
      36   0.416666667   0.433012702   0.000000000
      37   0.416666667   0.529237747   0.000000000
      38   0.416666667  -0.144337567   0.000000000
      39   0.416666667  -0.048112522   0.000000000
      40  -0.500000000  -0.288675135   0.000000000
      41  -0.500000000  -0.192450090   0.000000000
      42  -0.500000000  -0.096225045   0.000000000
      43  -0.500000000   0.000000000   0.000000000

     Saving dvscf to file. Distribute only q points, not irreducible represetations.

     Calculation of q =    0.0000000   0.0000000   0.0000000

     phonons of C2H2 on a grid! title line                                      

     bravais-lattice index     =           12
     lattice parameter (alat)  =       4.7961  a.u.
     unit-cell volume          =     752.9055 (a.u.)^3
     number of atoms/cell      =            4
     number of atomic types    =            2
     kinetic-energy cut-off    =      60.0000  Ry
     charge density cut-off    =     240.0000  Ry
     convergence threshold     =      1.0E-14
     beta                      =       0.7000
     number of iterations used =            4
     Exchange-correlation= PBE
                           (   1   4   3   4   0   0   0)


     celldm(1)=    4.79612  celldm(2)=    1.00000  celldm(3)=    7.88022
     celldm(4)=   -0.50000  celldm(5)=    0.00000  celldm(6)=    0.00000

     crystal axes: (cart. coord. in units of alat)
               a(1) = (  1.0000  0.0000  0.0000 )  
               a(2) = ( -0.5000  0.8660  0.0000 )  
               a(3) = (  0.0000  0.0000  7.8802 )  

     reciprocal axes: (cart. coord. in units 2 pi/alat)
               b(1) = (  1.0000  0.5774 -0.0000 )  
               b(2) = (  0.0000  1.1547  0.0000 )  
               b(3) = (  0.0000 -0.0000  0.1269 )  


     Atoms inside the unit cell: 

     Cartesian axes

     site n.  atom      mass           positions (alat units)
        1     C   12.0110   tau(    1) = (   -0.00000    0.57742    3.94019  )
        2     C   12.0110   tau(    2) = (    0.50000    0.28874    4.12127  )
        3     H    1.0079   tau(    3) = (   -0.00000    0.57744    3.50217  )
        4     H    1.0079   tau(    4) = (    0.50000    0.28873    4.55930  )

     Computing dynamical matrix for 
                    q = (   0.0000000   0.0000000   0.0000000 )

      3 Sym.Ops. (with q -> -q+G )


     G cutoff =  139.8403  (   5920 G-vectors)     FFT grid: ( 24, 24,192)
     number of k points=    43

     PseudoPot. # 1 for C  read from file:
     ./C.pbe-hgh.UPF
     MD5 check sum: ca26ff84b356733038fc2f5c468d1892
     Pseudo is Norm-conserving, Zval =  4.0
     Generated in analytical, separable form
     Using radial grid of 1073 points,  1 beta functions with: 
                l(1) =   0

     PseudoPot. # 2 for H  read from file:
     ./H.pbe-hgh.UPF
     MD5 check sum: 50ae4f52d34cf16cdfed4bce9c5a191e
     Pseudo is Norm-conserving, Zval =  1.0
     Generated in analytical, separable form
     Using radial grid of  929 points,  0 beta functions with: 

     Mode symmetry, C_s (m)     point group:


     Electric field:
     Dielectric constant
     Born effective charges in two ways 


     Atomic displacements:
     There are   12 irreducible representations

     Representation     1      1 modes -  To be done

     Representation     2      1 modes -  To be done

     Representation     3      1 modes -  To be done

     Representation     4      1 modes -  To be done

     Representation     5      1 modes -  To be done

     Representation     6      1 modes -  To be done

     Representation     7      1 modes -  To be done

     Representation     8      1 modes -  To be done

     Representation     9      1 modes -  To be done

     Representation    10      1 modes -  To be done

     Representation    11      1 modes -  To be done

     Representation    12      1 modes -  To be done



     Alpha used in Ewald sum =   2.5000
     PHONON       :      0.63s CPU      0.78s WALL


     Electric Fields Calculation

      iter #   1 total cpu time :    13.5 secs   av.it.:   6.8
      thresh= 1.000E-02 alpha_mix =  0.700 |ddv_scf|^2 =  1.437E-04

      iter #   2 total cpu time :    17.2 secs   av.it.:   7.8
      thresh= 1.199E-03 alpha_mix =  0.700 |ddv_scf|^2 =  3.096E-04

      iter #   3 total cpu time :    19.8 secs   av.it.:   4.8
      thresh= 1.760E-03 alpha_mix =  0.700 |ddv_scf|^2 =  3.851E-07

      iter #   4 total cpu time :    23.7 secs   av.it.:   8.2
      thresh= 6.205E-05 alpha_mix =  0.700 |ddv_scf|^2 =  3.198E-08

      iter #   5 total cpu time :    27.5 secs   av.it.:   8.0
      thresh= 1.788E-05 alpha_mix =  0.700 |ddv_scf|^2 =  7.047E-10

      iter #   6 total cpu time :    32.2 secs   av.it.:   8.7
      thresh= 2.655E-06 alpha_mix =  0.700 |ddv_scf|^2 =  6.690E-13

      iter #   7 total cpu time :    37.5 secs   av.it.:  10.3
      thresh= 8.179E-08 alpha_mix =  0.700 |ddv_scf|^2 =  4.959E-13

      iter #   8 total cpu time :    43.9 secs   av.it.:   9.5
      thresh= 7.042E-08 alpha_mix =  0.700 |ddv_scf|^2 =  3.837E-15

     End of electric fields calculation

          Dielectric constant in cartesian axis 

          (       1.587199604       0.000000000       0.000000000 )
          (       0.000000000       1.587160523      -0.000032017 )
          (       0.000000000      -0.000013552       1.201737510 )

          Effective charges (d Force / dE) in cartesian axis without acoustic sum rule applied (asr)

           atom      1   C  Mean Z*:        0.00165
      Ex  (       -0.07272        0.00000        0.00000 )
      Ey  (        0.00000       -0.05064        0.03931 )
      Ez  (        0.00000        0.00664        0.12831 )
           atom      2   C  Mean Z*:        0.03489
      Ex  (       -0.01069       -0.00000        0.00000 )
      Ey  (        0.00000       -0.01070        0.00070 )
      Ez  (        0.00000       -0.00001        0.12605 )
           atom      3   H  Mean Z*:       -0.03229
      Ex  (        0.01293        0.00000        0.00000 )
      Ey  (        0.00000        0.01296        0.00023 )
      Ez  (        0.00000        0.00001       -0.12276 )
           atom      4   H  Mean Z*:       -0.03231
      Ex  (        0.01288        0.00000        0.00000 )
      Ey  (       -0.00000        0.01291        0.00006 )
      Ez  (        0.00000        0.00001       -0.12271 )

          Effective charges Sum: Mean:       -0.02806
             -0.05760       -0.00000        0.00000
             -0.00000       -0.03548        0.00664
              0.00000        0.04031        0.00889

          Effective charges (d Force / dE) in cartesian axis with asr applied: 
           atom      1   C  Mean Z*:        0.00867
      E*x (       -0.05832        0.00000        0.00000 )
      E*y (        0.00000       -0.04177        0.02924 )
      E*z (        0.00000        0.00497        0.12609 )
           atom      2   C  Mean Z*:        0.04190
      E*x (        0.00372       -0.00000        0.00000 )
      E*y (        0.00000       -0.00183       -0.00937 )
      E*z (        0.00000       -0.00167        0.12383 )
           atom      3   H  Mean Z*:       -0.02528
      E*x (        0.02733        0.00000        0.00000 )
      E*y (        0.00000        0.02183       -0.00985 )
      E*z (        0.00000       -0.00165       -0.12498 )
           atom      4   H  Mean Z*:       -0.02529
      E*x (        0.02728        0.00000        0.00000 )
      E*y (       -0.00000        0.02177       -0.01001 )
      E*z (        0.00000       -0.00165       -0.12493 )


     Representation #   1 mode #   1

     Self-consistent Calculation

      iter #   1 total cpu time :    49.2 secs   av.it.:   4.3
      thresh= 1.000E-02 alpha_mix =  0.700 |ddv_scf|^2 =  1.310E-08

      iter #   2 total cpu time :    51.3 secs   av.it.:  11.0
      thresh= 1.145E-05 alpha_mix =  0.700 |ddv_scf|^2 =  1.155E-08

      iter #   3 total cpu time :    53.0 secs   av.it.:   9.4
      thresh= 1.075E-05 alpha_mix =  0.700 |ddv_scf|^2 =  9.210E-10

      iter #   4 total cpu time :    54.9 secs   av.it.:  10.0
      thresh= 3.035E-06 alpha_mix =  0.700 |ddv_scf|^2 =  4.637E-11

      iter #   5 total cpu time :    56.7 secs   av.it.:  10.7
      thresh= 6.810E-07 alpha_mix =  0.700 |ddv_scf|^2 =  1.625E-12

      iter #   6 total cpu time :    58.7 secs   av.it.:  10.5
      thresh= 1.275E-07 alpha_mix =  0.700 |ddv_scf|^2 =  2.025E-14

      iter #   7 total cpu time :    60.8 secs   av.it.:  11.5
      thresh= 1.423E-08 alpha_mix =  0.700 |ddv_scf|^2 =  9.448E-15

     End of self-consistent calculation

     Convergence has been achieved 


     Representation #   2 mode #   2

     Self-consistent Calculation

      iter #   1 total cpu time :    62.0 secs   av.it.:   4.3
      thresh= 1.000E-02 alpha_mix =  0.700 |ddv_scf|^2 =  2.889E-09

      iter #   2 total cpu time :    63.7 secs   av.it.:  11.5
      thresh= 5.375E-06 alpha_mix =  0.700 |ddv_scf|^2 =  4.665E-10

      iter #   3 total cpu time :    65.3 secs   av.it.:  10.5
      thresh= 2.160E-06 alpha_mix =  0.700 |ddv_scf|^2 =  4.773E-10

      iter #   4 total cpu time :    66.8 secs   av.it.:   9.4
      thresh= 2.185E-06 alpha_mix =  0.700 |ddv_scf|^2 =  1.024E-11

      iter #   5 total cpu time :    68.4 secs   av.it.:  10.6
      thresh= 3.200E-07 alpha_mix =  0.700 |ddv_scf|^2 =  9.313E-13

      iter #   6 total cpu time :    70.2 secs   av.it.:  10.7
      thresh= 9.650E-08 alpha_mix =  0.700 |ddv_scf|^2 =  4.447E-15

     End of self-consistent calculation

     Convergence has been achieved 


     Representation #   3 mode #   3

     Self-consistent Calculation

      iter #   1 total cpu time :    71.7 secs   av.it.:   7.2
      thresh= 1.000E-02 alpha_mix =  0.700 |ddv_scf|^2 =  5.932E-05

      iter #   2 total cpu time :    73.3 secs   av.it.:   9.9
      thresh= 7.702E-04 alpha_mix =  0.700 |ddv_scf|^2 =  1.624E-04

      iter #   3 total cpu time :    74.7 secs   av.it.:   8.7
      thresh= 1.274E-03 alpha_mix =  0.700 |ddv_scf|^2 =  2.098E-07

      iter #   4 total cpu time :    76.2 secs   av.it.:   9.8
      thresh= 4.581E-05 alpha_mix =  0.700 |ddv_scf|^2 =  1.282E-08

      iter #   5 total cpu time :    77.7 secs   av.it.:  10.1
      thresh= 1.132E-05 alpha_mix =  0.700 |ddv_scf|^2 =  2.542E-09

      iter #   6 total cpu time :    79.1 secs   av.it.:   9.1
      thresh= 5.042E-06 alpha_mix =  0.700 |ddv_scf|^2 =  1.341E-11

      iter #   7 total cpu time :    80.7 secs   av.it.:  10.5
      thresh= 3.662E-07 alpha_mix =  0.700 |ddv_scf|^2 =  1.380E-12

      iter #   8 total cpu time :    82.3 secs   av.it.:  11.2
      thresh= 1.175E-07 alpha_mix =  0.700 |ddv_scf|^2 =  8.218E-13

      iter #   9 total cpu time :    83.9 secs   av.it.:  10.4
      thresh= 9.065E-08 alpha_mix =  0.700 |ddv_scf|^2 =  6.806E-15

     End of self-consistent calculation

     Convergence has been achieved 


     Representation #   4 mode #   4

     Self-consistent Calculation

      iter #   1 total cpu time :    85.1 secs   av.it.:   5.3
      thresh= 1.000E-02 alpha_mix =  0.700 |ddv_scf|^2 =  1.818E-06

      iter #   2 total cpu time :    86.5 secs   av.it.:  10.2
      thresh= 1.348E-04 alpha_mix =  0.700 |ddv_scf|^2 =  1.943E-06

      iter #   3 total cpu time :    87.9 secs   av.it.:   9.2
      thresh= 1.394E-04 alpha_mix =  0.700 |ddv_scf|^2 =  9.201E-08

      iter #   4 total cpu time :    89.3 secs   av.it.:   9.4
      thresh= 3.033E-05 alpha_mix =  0.700 |ddv_scf|^2 =  2.834E-09

      iter #   5 total cpu time :    90.8 secs   av.it.:   9.7
      thresh= 5.323E-06 alpha_mix =  0.700 |ddv_scf|^2 =  4.908E-11

      iter #   6 total cpu time :    92.4 secs   av.it.:  10.4
      thresh= 7.006E-07 alpha_mix =  0.700 |ddv_scf|^2 =  2.689E-12

      iter #   7 total cpu time :    94.0 secs   av.it.:  10.9
      thresh= 1.640E-07 alpha_mix =  0.700 |ddv_scf|^2 =  1.074E-13

      iter #   8 total cpu time :    95.5 secs   av.it.:  10.1
      thresh= 3.277E-08 alpha_mix =  0.700 |ddv_scf|^2 =  1.507E-14

      iter #   9 total cpu time :    97.0 secs   av.it.:   9.6
      thresh= 1.228E-08 alpha_mix =  0.700 |ddv_scf|^2 =  2.499E-16

     End of self-consistent calculation

     Convergence has been achieved 


     Representation #   5 mode #   5

     Self-consistent Calculation

      iter #   1 total cpu time :    98.3 secs   av.it.:   7.2
      thresh= 1.000E-02 alpha_mix =  0.700 |ddv_scf|^2 =  5.892E-05

      iter #   2 total cpu time :    99.9 secs   av.it.:   9.8
      thresh= 7.676E-04 alpha_mix =  0.700 |ddv_scf|^2 =  1.623E-04

      iter #   3 total cpu time :   101.3 secs   av.it.:   8.7
      thresh= 1.274E-03 alpha_mix =  0.700 |ddv_scf|^2 =  1.971E-07

      iter #   4 total cpu time :   102.8 secs   av.it.:   9.5
      thresh= 4.439E-05 alpha_mix =  0.700 |ddv_scf|^2 =  5.912E-09

      iter #   5 total cpu time :   104.4 secs   av.it.:   9.7
      thresh= 7.689E-06 alpha_mix =  0.700 |ddv_scf|^2 =  3.396E-11

      iter #   6 total cpu time :   106.1 secs   av.it.:  10.3
      thresh= 5.827E-07 alpha_mix =  0.700 |ddv_scf|^2 =  1.946E-12

      iter #   7 total cpu time :   107.9 secs   av.it.:  10.7
      thresh= 1.395E-07 alpha_mix =  0.700 |ddv_scf|^2 =  6.951E-13

      iter #   8 total cpu time :   109.6 secs   av.it.:  10.3
      thresh= 8.338E-08 alpha_mix =  0.700 |ddv_scf|^2 =  2.221E-14

      iter #   9 total cpu time :   111.2 secs   av.it.:   9.4
      thresh= 1.490E-08 alpha_mix =  0.700 |ddv_scf|^2 =  7.104E-16

     End of self-consistent calculation

     Convergence has been achieved 


     Representation #   6 mode #   6

     Self-consistent Calculation

      iter #   1 total cpu time :   112.5 secs   av.it.:   5.3
      thresh= 1.000E-02 alpha_mix =  0.700 |ddv_scf|^2 =  1.858E-06

      iter #   2 total cpu time :   114.2 secs   av.it.:  10.2
      thresh= 1.363E-04 alpha_mix =  0.700 |ddv_scf|^2 =  1.976E-06

      iter #   3 total cpu time :   115.6 secs   av.it.:   9.2
      thresh= 1.406E-04 alpha_mix =  0.700 |ddv_scf|^2 =  9.365E-08

      iter #   4 total cpu time :   117.0 secs   av.it.:   9.3
      thresh= 3.060E-05 alpha_mix =  0.700 |ddv_scf|^2 =  2.946E-09

      iter #   5 total cpu time :   118.5 secs   av.it.:   9.7
      thresh= 5.428E-06 alpha_mix =  0.700 |ddv_scf|^2 =  1.040E-10

      iter #   6 total cpu time :   120.1 secs   av.it.:  10.3
      thresh= 1.020E-06 alpha_mix =  0.700 |ddv_scf|^2 =  2.829E-12

      iter #   7 total cpu time :   121.7 secs   av.it.:  10.9
      thresh= 1.682E-07 alpha_mix =  0.700 |ddv_scf|^2 =  1.082E-13

      iter #   8 total cpu time :   123.2 secs   av.it.:  10.1
      thresh= 3.290E-08 alpha_mix =  0.700 |ddv_scf|^2 =  1.516E-14

      iter #   9 total cpu time :   124.7 secs   av.it.:   9.5
      thresh= 1.231E-08 alpha_mix =  0.700 |ddv_scf|^2 =  2.202E-16

     End of self-consistent calculation

     Convergence has been achieved 


     Representation #   7 mode #   7

     Self-consistent Calculation

      iter #   1 total cpu time :   126.0 secs   av.it.:   6.6
      thresh= 1.000E-02 alpha_mix =  0.700 |ddv_scf|^2 =  6.979E-07

      iter #   2 total cpu time :   127.5 secs   av.it.:  10.4
      thresh= 8.354E-05 alpha_mix =  0.700 |ddv_scf|^2 =  1.333E-07

      iter #   3 total cpu time :   128.9 secs   av.it.:   9.8
      thresh= 3.651E-05 alpha_mix =  0.700 |ddv_scf|^2 =  1.938E-07

      iter #   4 total cpu time :   130.6 secs   av.it.:   8.8
      thresh= 4.402E-05 alpha_mix =  0.700 |ddv_scf|^2 =  2.703E-10

      iter #   5 total cpu time :   132.1 secs   av.it.:   9.7
      thresh= 1.644E-06 alpha_mix =  0.700 |ddv_scf|^2 =  9.382E-12

      iter #   6 total cpu time :   133.5 secs   av.it.:  10.5
      thresh= 3.063E-07 alpha_mix =  0.700 |ddv_scf|^2 =  1.998E-12

      iter #   7 total cpu time :   134.9 secs   av.it.:  10.3
      thresh= 1.414E-07 alpha_mix =  0.700 |ddv_scf|^2 =  5.683E-15

     End of self-consistent calculation

     Convergence has been achieved 


     Representation #   8 mode #   8

     Self-consistent Calculation

      iter #   1 total cpu time :   136.1 secs   av.it.:   6.6
      thresh= 1.000E-02 alpha_mix =  0.700 |ddv_scf|^2 =  7.060E-08

      iter #   2 total cpu time :   137.7 secs   av.it.:  11.6
      thresh= 2.657E-05 alpha_mix =  0.700 |ddv_scf|^2 =  1.283E-08

      iter #   3 total cpu time :   139.1 secs   av.it.:   9.8
      thresh= 1.133E-05 alpha_mix =  0.700 |ddv_scf|^2 =  1.448E-08

      iter #   4 total cpu time :   140.5 secs   av.it.:   8.9
      thresh= 1.203E-05 alpha_mix =  0.700 |ddv_scf|^2 =  2.685E-11

      iter #   5 total cpu time :   141.9 secs   av.it.:  10.4
      thresh= 5.182E-07 alpha_mix =  0.700 |ddv_scf|^2 =  9.548E-13

      iter #   6 total cpu time :   143.4 secs   av.it.:  10.4
      thresh= 9.771E-08 alpha_mix =  0.700 |ddv_scf|^2 =  9.181E-15

     End of self-consistent calculation

     Convergence has been achieved 


     Representation #   9 mode #   9

     Self-consistent Calculation

      iter #   1 total cpu time :   144.6 secs   av.it.:   6.5
      thresh= 1.000E-02 alpha_mix =  0.700 |ddv_scf|^2 =  6.610E-08

      iter #   2 total cpu time :   146.1 secs   av.it.:  11.4
      thresh= 2.571E-05 alpha_mix =  0.700 |ddv_scf|^2 =  5.935E-10

      iter #   3 total cpu time :   147.5 secs   av.it.:  10.1
      thresh= 2.436E-06 alpha_mix =  0.700 |ddv_scf|^2 =  4.905E-11

      iter #   4 total cpu time :   148.9 secs   av.it.:  10.1
      thresh= 7.004E-07 alpha_mix =  0.700 |ddv_scf|^2 =  2.188E-14

      iter #   5 total cpu time :   150.5 secs   av.it.:  11.0
      thresh= 1.479E-08 alpha_mix =  0.700 |ddv_scf|^2 =  1.114E-15

     End of self-consistent calculation

     Convergence has been achieved 


     Representation #  10 mode #  10

     Self-consistent Calculation

      iter #   1 total cpu time :   151.5 secs   av.it.:   4.3
      thresh= 1.000E-02 alpha_mix =  0.700 |ddv_scf|^2 =  2.538E-09

      iter #   2 total cpu time :   153.1 secs   av.it.:  11.4
      thresh= 5.038E-06 alpha_mix =  0.700 |ddv_scf|^2 =  9.866E-11

      iter #   3 total cpu time :   154.6 secs   av.it.:  10.9
      thresh= 9.933E-07 alpha_mix =  0.700 |ddv_scf|^2 =  3.237E-12

      iter #   4 total cpu time :   156.3 secs   av.it.:  10.7
      thresh= 1.799E-07 alpha_mix =  0.700 |ddv_scf|^2 =  2.784E-14

      iter #   5 total cpu time :   157.9 secs   av.it.:  10.9
      thresh= 1.669E-08 alpha_mix =  0.700 |ddv_scf|^2 =  2.355E-16

     End of self-consistent calculation

     Convergence has been achieved 


     Representation #  11 mode #  11

     Self-consistent Calculation

      iter #   1 total cpu time :   159.1 secs   av.it.:   4.3
      thresh= 1.000E-02 alpha_mix =  0.700 |ddv_scf|^2 =  2.530E-09

      iter #   2 total cpu time :   161.2 secs   av.it.:  11.4
      thresh= 5.030E-06 alpha_mix =  0.700 |ddv_scf|^2 =  9.718E-11

      iter #   3 total cpu time :   163.1 secs   av.it.:  10.9
      thresh= 9.858E-07 alpha_mix =  0.700 |ddv_scf|^2 =  3.181E-12

      iter #   4 total cpu time :   165.1 secs   av.it.:  10.6
      thresh= 1.783E-07 alpha_mix =  0.700 |ddv_scf|^2 =  2.770E-14

      iter #   5 total cpu time :   166.8 secs   av.it.:  10.9
      thresh= 1.664E-08 alpha_mix =  0.700 |ddv_scf|^2 =  2.161E-16

     End of self-consistent calculation

     Convergence has been achieved 


     Representation #  12 mode #  12

     Self-consistent Calculation

      iter #   1 total cpu time :   168.0 secs   av.it.:   6.5
      thresh= 1.000E-02 alpha_mix =  0.700 |ddv_scf|^2 =  7.555E-07

      iter #   2 total cpu time :   169.4 secs   av.it.:  10.2
      thresh= 8.692E-05 alpha_mix =  0.700 |ddv_scf|^2 =  1.028E-07

      iter #   3 total cpu time :   170.8 secs   av.it.:   8.5
      thresh= 3.206E-05 alpha_mix =  0.700 |ddv_scf|^2 =  2.844E-10

      iter #   4 total cpu time :   172.2 secs   av.it.:   9.5
      thresh= 1.687E-06 alpha_mix =  0.700 |ddv_scf|^2 =  3.426E-14

      iter #   5 total cpu time :   173.8 secs   av.it.:  11.1
      thresh= 1.851E-08 alpha_mix =  0.700 |ddv_scf|^2 =  1.376E-15

     End of self-consistent calculation

     Convergence has been achieved 

     Number of q in the star =    1
     List of q in the star:
          1   0.000000000   0.000000000   0.000000000

          Dielectric constant in cartesian axis 

          (       1.587199604       0.000000000       0.000000000 )
          (       0.000000000       1.587160523      -0.000032017 )
          (       0.000000000      -0.000013552       1.201737510 )

          Effective charges (d Force / dE) in cartesian axis without acoustic sum rule applied (asr)

           atom      1   C  Mean Z*:        0.00165
      Ex  (       -0.07272        0.00000        0.00000 )
      Ey  (        0.00000       -0.05064        0.03931 )
      Ez  (        0.00000        0.00664        0.12831 )
           atom      2   C  Mean Z*:        0.03489
      Ex  (       -0.01069       -0.00000        0.00000 )
      Ey  (        0.00000       -0.01070        0.00070 )
      Ez  (        0.00000       -0.00001        0.12605 )
           atom      3   H  Mean Z*:       -0.03229
      Ex  (        0.01293        0.00000        0.00000 )
      Ey  (        0.00000        0.01296        0.00023 )
      Ez  (        0.00000        0.00001       -0.12276 )
           atom      4   H  Mean Z*:       -0.03231
      Ex  (        0.01288        0.00000        0.00000 )
      Ey  (       -0.00000        0.01291        0.00006 )
      Ez  (        0.00000        0.00001       -0.12271 )

          Effective charges Sum: Mean:       -0.02806
             -0.05760       -0.00000        0.00000
             -0.00000       -0.03548        0.00664
              0.00000        0.04031        0.00889

          Effective charges (d Force / dE) in cartesian axis with asr applied: 
           atom      1   C  Mean Z*:        0.00867
      E*x (       -0.05832        0.00000        0.00000 )
      E*y (        0.00000       -0.04177        0.02924 )
      E*z (        0.00000        0.00497        0.12609 )
           atom      2   C  Mean Z*:        0.04190
      E*x (        0.00372       -0.00000        0.00000 )
      E*y (        0.00000       -0.00183       -0.00937 )
      E*z (        0.00000       -0.00167        0.12383 )
           atom      3   H  Mean Z*:       -0.02528
      E*x (        0.02733        0.00000        0.00000 )
      E*y (        0.00000        0.02183       -0.00985 )
      E*z (        0.00000       -0.00165       -0.12498 )
           atom      4   H  Mean Z*:       -0.02529
      E*x (        0.02728        0.00000        0.00000 )
      E*y (       -0.00000        0.02177       -0.01001 )
      E*z (        0.00000       -0.00165       -0.12493 )

          Effective charges (d P / du) in cartesian axis 

           atom      1   C  
      Px  (       -0.07268        0.00000        0.00000 )
      Py  (        0.00000       -0.05068        0.03871 )
      Pz  (        0.00000        0.00676        0.12842 )
           atom      2   C  
      Px  (       -0.01063        0.00000        0.00000 )
      Py  (        0.00000       -0.01059        0.00009 )
      Pz  (        0.00000       -0.00005        0.12605 )
           atom      3   H  
      Px  (        0.01295        0.00000        0.00000 )
      Py  (        0.00000        0.01301        0.00017 )
      Pz  (        0.00000       -0.00000       -0.12274 )
           atom      4   H  
      Px  (        0.01290        0.00000        0.00000 )
      Py  (        0.00000        0.01293        0.00000 )
      Pz  (        0.00000        0.00011       -0.12270 )

     Diagonalizing the dynamical matrix

     q = (    0.000000000   0.000000000   0.000000000 ) 

 **************************************************************************
     freq (    1) =     -27.863084 [THz] =    -929.412434 [cm-1]
     freq (    2) =     -27.844181 [THz] =    -928.781920 [cm-1]
     freq (    3) =      14.859897 [THz] =     495.672804 [cm-1]
     freq (    4) =      29.350626 [THz] =     979.031487 [cm-1]
     freq (    5) =      29.473517 [THz] =     983.130699 [cm-1]
     freq (    6) =      33.175908 [THz] =    1106.629159 [cm-1]
     freq (    7) =      33.177333 [THz] =    1106.676700 [cm-1]
     freq (    8) =      36.649130 [THz] =    1222.483377 [cm-1]
     freq (    9) =      37.233708 [THz] =    1241.982820 [cm-1]
     freq (   10) =      40.387640 [THz] =    1347.186658 [cm-1]
     freq (   11) =      86.857312 [THz] =    2897.248064 [cm-1]
     freq (   12) =      88.093113 [THz] =    2938.469938 [cm-1]
 **************************************************************************

     Mode symmetry, C_s (m)     point group:

     freq (   1-   1) =       -929.4  [cm-1]   --> A''             I+R
     freq (   2-   2) =       -928.8  [cm-1]   --> A'              I+R
     freq (   3-   3) =        495.7  [cm-1]   --> A'              I+R
     freq (   4-   4) =        979.0  [cm-1]   --> A'              I+R
     freq (   5-   5) =        983.1  [cm-1]   --> A''             I+R
     freq (   6-   6) =       1106.6  [cm-1]   --> A'              I+R
     freq (   7-   7) =       1106.7  [cm-1]   --> A''             I+R
     freq (   8-   8) =       1222.5  [cm-1]   --> A'              I+R
     freq (   9-   9) =       1242.0  [cm-1]   --> A''             I+R
     freq (  10-  10) =       1347.2  [cm-1]   --> A'              I+R
     freq (  11-  11) =       2897.2  [cm-1]   --> A'              I+R
     freq (  12-  12) =       2938.5  [cm-1]   --> A'              I+R

     Calculation of q =    0.0000000   0.0962250   0.0000000

     Subspace diagonalization in iterative solution of the eigenvalue problem:
     a serial algorithm will be used


     Parallelization info
     --------------------
     sticks:   dense  smooth     PW     G-vecs:    dense   smooth      PW
     Min          47      47     15                 5907     5907    1053
     Max          48      48     16                 5932     5932    1080
     Sum         379     379    121                47317    47317    8517

     Using Slab Decomposition


     Title: 
     phonons of C2H2 on a grid! title line                                      


     bravais-lattice index     =           12
     lattice parameter (alat)  =       4.7961  a.u.
     unit-cell volume          =     752.9055 (a.u.)^3
     number of atoms/cell      =            4
     number of atomic types    =            2
     number of electrons       =        10.00
     number of Kohn-Sham states=           12
     kinetic-energy cutoff     =      60.0000  Ry
     charge density cutoff     =     240.0000  Ry
     Exchange-correlation= PBE
                           (   1   4   3   4   0   0   0)

     celldm(1)=   4.796125  celldm(2)=   1.000000  celldm(3)=   7.880221
     celldm(4)=  -0.500000  celldm(5)=   0.000000  celldm(6)=   0.000000

     crystal axes: (cart. coord. in units of alat)
               a(1) = (   1.000000   0.000000   0.000000 )  
               a(2) = (  -0.500000   0.866025   0.000000 )  
               a(3) = (   0.000000   0.000000   7.880221 )  

     reciprocal axes: (cart. coord. in units 2 pi/alat)
               b(1) = (  1.000000  0.577350 -0.000000 )  
               b(2) = (  0.000000  1.154701  0.000000 )  
               b(3) = (  0.000000 -0.000000  0.126900 )  


     PseudoPot. # 1 for C  read from file:
     ./C.pbe-hgh.UPF
     MD5 check sum: ca26ff84b356733038fc2f5c468d1892
     Pseudo is Norm-conserving, Zval =  4.0
     Generated in analytical, separable form
     Using radial grid of 1073 points,  1 beta functions with: 
                l(1) =   0

     PseudoPot. # 2 for H  read from file:
     ./H.pbe-hgh.UPF
     MD5 check sum: 50ae4f52d34cf16cdfed4bce9c5a191e
     Pseudo is Norm-conserving, Zval =  1.0
     Generated in analytical, separable form
     Using radial grid of  929 points,  0 beta functions with: 

     atomic species   valence    mass     pseudopotential
        C              4.00    12.01100     C ( 1.00)
        H              1.00     1.00790     H ( 1.00)

      2 Sym. Ops. (no inversion) found



   Cartesian axes

     site n.     atom                  positions (alat units)
         1           C   tau(   1) = (  -0.0000001   0.5774215   3.9401877  )
         2           C   tau(   2) = (   0.5000001   0.2887421   4.1212739  )
         3           H   tau(   3) = (  -0.0000001   0.5774352   3.5021743  )
         4           H   tau(   4) = (   0.5000001   0.2887283   4.5592956  )

     number of k points=   156

     Number of k-points >= 100: set verbosity='high' to print them.

     Dense  grid:    47317 G-vectors     FFT dimensions: (  24,  24, 192)

     Estimated max dynamical RAM per process >       3.35 MB

     Estimated total dynamical RAM >      26.77 MB

     The potential is recalculated from file :
     ./_ph0/C2H2.q_2/C2H2.save/charge-density

     Starting wfcs are   10 atomic +    2 random wfcs

     Band Structure Calculation
     Davidson diagonalization with overlap

     ethr =  1.00E-10,  avg # of iterations = 33.0

     total cpu time spent up to now is       34.7 secs

     End of band structure calculation

     Number of k-points >= 100: set verbosity='high' to print the bands.

     highest occupied, lowest unoccupied level (ev):    -2.7253    0.6888

     Writing config to output data dir ./_ph0/C2H2.q_2/C2H2.save/

     phonons of C2H2 on a grid! title line                                      

     bravais-lattice index     =           12
     lattice parameter (alat)  =       4.7961  a.u.
     unit-cell volume          =     752.9055 (a.u.)^3
     number of atoms/cell      =            4
     number of atomic types    =            2
     kinetic-energy cut-off    =      60.0000  Ry
     charge density cut-off    =     240.0000  Ry
     convergence threshold     =      1.0E-14
     beta                      =       0.7000
     number of iterations used =            4
     Exchange-correlation= PBE
                           (   1   4   3   4   0   0   0)


     celldm(1)=    4.79612  celldm(2)=    1.00000  celldm(3)=    7.88022
     celldm(4)=   -0.50000  celldm(5)=    0.00000  celldm(6)=    0.00000

     crystal axes: (cart. coord. in units of alat)
               a(1) = (  1.0000  0.0000  0.0000 )  
               a(2) = ( -0.5000  0.8660  0.0000 )  
               a(3) = (  0.0000  0.0000  7.8802 )  

     reciprocal axes: (cart. coord. in units 2 pi/alat)
               b(1) = (  1.0000  0.5774 -0.0000 )  
               b(2) = (  0.0000  1.1547  0.0000 )  
               b(3) = (  0.0000 -0.0000  0.1269 )  


     Atoms inside the unit cell: 

     Cartesian axes

     site n.  atom      mass           positions (alat units)
        1     C   12.0110   tau(    1) = (   -0.00000    0.57742    3.94019  )
        2     C   12.0110   tau(    2) = (    0.50000    0.28874    4.12127  )
        3     H    1.0079   tau(    3) = (   -0.00000    0.57744    3.50217  )
        4     H    1.0079   tau(    4) = (    0.50000    0.28873    4.55930  )

     Computing dynamical matrix for 
                    q = (   0.0000000   0.0962250   0.0000000 )

      2 Sym.Ops. (no q -> -q+G )


     G cutoff =  139.8403  (   5909 G-vectors)     FFT grid: ( 24, 24,192)
     number of k points=   156

     PseudoPot. # 1 for C  read from file:
     ./C.pbe-hgh.UPF
     MD5 check sum: ca26ff84b356733038fc2f5c468d1892
     Pseudo is Norm-conserving, Zval =  4.0
     Generated in analytical, separable form
     Using radial grid of 1073 points,  1 beta functions with: 
                l(1) =   0

     PseudoPot. # 2 for H  read from file:
     ./H.pbe-hgh.UPF
     MD5 check sum: 50ae4f52d34cf16cdfed4bce9c5a191e
     Pseudo is Norm-conserving, Zval =  1.0
     Generated in analytical, separable form
     Using radial grid of  929 points,  0 beta functions with: 

     Mode symmetry, C_s (m)     point group:


     Atomic displacements:
     There are   12 irreducible representations

     Representation     1      1 modes -  To be done

     Representation     2      1 modes -  To be done

     Representation     3      1 modes -  To be done

     Representation     4      1 modes -  To be done

     Representation     5      1 modes -  To be done

     Representation     6      1 modes -  To be done

     Representation     7      1 modes -  To be done

     Representation     8      1 modes -  To be done

     Representation     9      1 modes -  To be done

     Representation    10      1 modes -  To be done

     Representation    11      1 modes -  To be done

     Representation    12      1 modes -  To be done



     Alpha used in Ewald sum =   2.5000
     PHONON       :   3m 8.67s CPU   3m28.83s WALL



     Representation #   1 mode #   1

     Self-consistent Calculation

      iter #   1 total cpu time :   211.0 secs   av.it.:   4.8
      thresh= 1.000E-02 alpha_mix =  0.700 |ddv_scf|^2 =  1.007E-06

      iter #   2 total cpu time :   213.8 secs   av.it.:   9.6
      thresh= 1.004E-04 alpha_mix =  0.700 |ddv_scf|^2 =  4.526E-07

      iter #   3 total cpu time :   216.4 secs   av.it.:   9.4
      thresh= 6.727E-05 alpha_mix =  0.700 |ddv_scf|^2 =  1.116E-08

      iter #   4 total cpu time :   219.6 secs   av.it.:   9.6
      thresh= 1.056E-05 alpha_mix =  0.700 |ddv_scf|^2 =  1.753E-10

      iter #   5 total cpu time :   223.0 secs   av.it.:  10.4
      thresh= 1.324E-06 alpha_mix =  0.700 |ddv_scf|^2 =  5.494E-11

      iter #   6 total cpu time :   225.9 secs   av.it.:   9.6
      thresh= 7.412E-07 alpha_mix =  0.700 |ddv_scf|^2 =  8.498E-14

      iter #   7 total cpu time :   228.8 secs   av.it.:  11.3
      thresh= 2.915E-08 alpha_mix =  0.700 |ddv_scf|^2 =  2.605E-14

      iter #   8 total cpu time :   232.4 secs   av.it.:  10.9
      thresh= 1.614E-08 alpha_mix =  0.700 |ddv_scf|^2 =  2.857E-15

     End of self-consistent calculation

     Convergence has been achieved 


     Representation #   2 mode #   2

     Self-consistent Calculation

      iter #   1 total cpu time :   234.2 secs   av.it.:   4.8
      thresh= 1.000E-02 alpha_mix =  0.700 |ddv_scf|^2 =  9.957E-07

      iter #   2 total cpu time :   236.6 secs   av.it.:   9.5
      thresh= 9.979E-05 alpha_mix =  0.700 |ddv_scf|^2 =  4.371E-07

      iter #   3 total cpu time :   239.6 secs   av.it.:   9.4
      thresh= 6.611E-05 alpha_mix =  0.700 |ddv_scf|^2 =  1.166E-08

      iter #   4 total cpu time :   242.8 secs   av.it.:   9.6
      thresh= 1.080E-05 alpha_mix =  0.700 |ddv_scf|^2 =  1.576E-10

      iter #   5 total cpu time :   245.7 secs   av.it.:  10.5
      thresh= 1.255E-06 alpha_mix =  0.700 |ddv_scf|^2 =  5.774E-11

      iter #   6 total cpu time :   248.3 secs   av.it.:   9.7
      thresh= 7.599E-07 alpha_mix =  0.700 |ddv_scf|^2 =  7.883E-14

      iter #   7 total cpu time :   251.6 secs   av.it.:  11.2
      thresh= 2.808E-08 alpha_mix =  0.700 |ddv_scf|^2 =  1.924E-14

      iter #   8 total cpu time :   254.6 secs   av.it.:  10.9
      thresh= 1.387E-08 alpha_mix =  0.700 |ddv_scf|^2 =  2.263E-15

     End of self-consistent calculation

     Convergence has been achieved 


     Representation #   3 mode #   3

     Self-consistent Calculation

      iter #   1 total cpu time :   257.1 secs   av.it.:   7.2
      thresh= 1.000E-02 alpha_mix =  0.700 |ddv_scf|^2 =  2.204E-05

      iter #   2 total cpu time :   260.1 secs   av.it.:  10.4
      thresh= 4.695E-04 alpha_mix =  0.700 |ddv_scf|^2 =  3.603E-05

      iter #   3 total cpu time :   263.1 secs   av.it.:   9.2
      thresh= 6.002E-04 alpha_mix =  0.700 |ddv_scf|^2 =  6.191E-08

      iter #   4 total cpu time :   266.3 secs   av.it.:  10.4
      thresh= 2.488E-05 alpha_mix =  0.700 |ddv_scf|^2 =  2.517E-08

      iter #   5 total cpu time :   269.1 secs   av.it.:   9.2
      thresh= 1.586E-05 alpha_mix =  0.700 |ddv_scf|^2 =  1.774E-09

      iter #   6 total cpu time :   272.0 secs   av.it.:   9.9
      thresh= 4.212E-06 alpha_mix =  0.700 |ddv_scf|^2 =  4.894E-11

      iter #   7 total cpu time :   275.8 secs   av.it.:   9.9
      thresh= 6.996E-07 alpha_mix =  0.700 |ddv_scf|^2 =  1.526E-12

      iter #   8 total cpu time :   278.9 secs   av.it.:  10.3
      thresh= 1.235E-07 alpha_mix =  0.700 |ddv_scf|^2 =  3.134E-13

      iter #   9 total cpu time :   282.1 secs   av.it.:  10.5
      thresh= 5.598E-08 alpha_mix =  0.700 |ddv_scf|^2 =  6.966E-15

     End of self-consistent calculation

     Convergence has been achieved 


     Representation #   4 mode #   4

     Self-consistent Calculation

      iter #   1 total cpu time :   284.2 secs   av.it.:   5.4
      thresh= 1.000E-02 alpha_mix =  0.700 |ddv_scf|^2 =  9.884E-07

      iter #   2 total cpu time :   287.0 secs   av.it.:  10.7
      thresh= 9.942E-05 alpha_mix =  0.700 |ddv_scf|^2 =  1.180E-06

      iter #   3 total cpu time :   289.5 secs   av.it.:   9.5
      thresh= 1.086E-04 alpha_mix =  0.700 |ddv_scf|^2 =  5.696E-09

      iter #   4 total cpu time :   292.2 secs   av.it.:  10.8
      thresh= 7.547E-06 alpha_mix =  0.700 |ddv_scf|^2 =  2.214E-09

      iter #   5 total cpu time :   294.8 secs   av.it.:  10.3
      thresh= 4.706E-06 alpha_mix =  0.700 |ddv_scf|^2 =  3.895E-11

      iter #   6 total cpu time :   297.4 secs   av.it.:  10.6
      thresh= 6.241E-07 alpha_mix =  0.700 |ddv_scf|^2 =  4.898E-12

      iter #   7 total cpu time :   300.4 secs   av.it.:  11.0
      thresh= 2.213E-07 alpha_mix =  0.700 |ddv_scf|^2 =  9.676E-13

      iter #   8 total cpu time :   303.6 secs   av.it.:  10.7
      thresh= 9.837E-08 alpha_mix =  0.700 |ddv_scf|^2 =  1.733E-14

      iter #   9 total cpu time :   306.8 secs   av.it.:  10.3
      thresh= 1.316E-08 alpha_mix =  0.700 |ddv_scf|^2 =  1.092E-15

     End of self-consistent calculation

     Convergence has been achieved 


     Representation #   5 mode #   5

     Self-consistent Calculation

      iter #   1 total cpu time :   309.9 secs   av.it.:   7.2
      thresh= 1.000E-02 alpha_mix =  0.700 |ddv_scf|^2 =  2.166E-05

      iter #   2 total cpu time :   312.8 secs   av.it.:  10.3
      thresh= 4.654E-04 alpha_mix =  0.700 |ddv_scf|^2 =  3.592E-05

      iter #   3 total cpu time :   315.5 secs   av.it.:   9.2
      thresh= 5.994E-04 alpha_mix =  0.700 |ddv_scf|^2 =  4.971E-08

      iter #   4 total cpu time :   318.5 secs   av.it.:  10.0
      thresh= 2.230E-05 alpha_mix =  0.700 |ddv_scf|^2 =  8.088E-09

      iter #   5 total cpu time :   321.4 secs   av.it.:   9.3
      thresh= 8.994E-06 alpha_mix =  0.700 |ddv_scf|^2 =  1.383E-10

      iter #   6 total cpu time :   324.1 secs   av.it.:  10.0
      thresh= 1.176E-06 alpha_mix =  0.700 |ddv_scf|^2 =  4.650E-12

      iter #   7 total cpu time :   326.6 secs   av.it.:  10.4
      thresh= 2.156E-07 alpha_mix =  0.700 |ddv_scf|^2 =  3.228E-14

      iter #   8 total cpu time :   329.5 secs   av.it.:  11.0
      thresh= 1.797E-08 alpha_mix =  0.700 |ddv_scf|^2 =  7.824E-15

     End of self-consistent calculation

     Convergence has been achieved 


     Representation #   6 mode #   6

     Self-consistent Calculation

      iter #   1 total cpu time :   331.5 secs   av.it.:   5.4
      thresh= 1.000E-02 alpha_mix =  0.700 |ddv_scf|^2 =  1.022E-06

      iter #   2 total cpu time :   334.2 secs   av.it.:  10.7
      thresh= 1.011E-04 alpha_mix =  0.700 |ddv_scf|^2 =  1.207E-06

      iter #   3 total cpu time :   337.0 secs   av.it.:   9.5
      thresh= 1.099E-04 alpha_mix =  0.700 |ddv_scf|^2 =  5.890E-09

      iter #   4 total cpu time :   340.4 secs   av.it.:  10.7
      thresh= 7.674E-06 alpha_mix =  0.700 |ddv_scf|^2 =  2.104E-09

      iter #   5 total cpu time :   343.8 secs   av.it.:  10.3
      thresh= 4.587E-06 alpha_mix =  0.700 |ddv_scf|^2 =  8.522E-11

      iter #   6 total cpu time :   346.9 secs   av.it.:  10.2
      thresh= 9.232E-07 alpha_mix =  0.700 |ddv_scf|^2 =  8.038E-12

      iter #   7 total cpu time :   350.3 secs   av.it.:  10.9
      thresh= 2.835E-07 alpha_mix =  0.700 |ddv_scf|^2 =  1.095E-12

      iter #   8 total cpu time :   353.0 secs   av.it.:  10.6
      thresh= 1.046E-07 alpha_mix =  0.700 |ddv_scf|^2 =  1.544E-14

      iter #   9 total cpu time :   355.7 secs   av.it.:  10.4
      thresh= 1.243E-08 alpha_mix =  0.700 |ddv_scf|^2 =  1.016E-15

     End of self-consistent calculation

     Convergence has been achieved 


     Representation #   7 mode #   7

     Self-consistent Calculation

      iter #   1 total cpu time :   358.0 secs   av.it.:   7.0
      thresh= 1.000E-02 alpha_mix =  0.700 |ddv_scf|^2 =  1.807E-05

      iter #   2 total cpu time :   361.2 secs   av.it.:   9.7
      thresh= 4.251E-04 alpha_mix =  0.700 |ddv_scf|^2 =  8.356E-06

      iter #   3 total cpu time :   364.2 secs   av.it.:   9.4
      thresh= 2.891E-04 alpha_mix =  0.700 |ddv_scf|^2 =  1.064E-07

      iter #   4 total cpu time :   367.2 secs   av.it.:  10.2
      thresh= 3.262E-05 alpha_mix =  0.700 |ddv_scf|^2 =  2.844E-08

      iter #   5 total cpu time :   369.9 secs   av.it.:   9.8
      thresh= 1.686E-05 alpha_mix =  0.700 |ddv_scf|^2 =  3.563E-09

      iter #   6 total cpu time :   372.8 secs   av.it.:   9.9
      thresh= 5.969E-06 alpha_mix =  0.700 |ddv_scf|^2 =  5.794E-11

      iter #   7 total cpu time :   375.7 secs   av.it.:  10.0
      thresh= 7.612E-07 alpha_mix =  0.700 |ddv_scf|^2 =  1.156E-12

      iter #   8 total cpu time :   379.0 secs   av.it.:  11.3
      thresh= 1.075E-07 alpha_mix =  0.700 |ddv_scf|^2 =  3.173E-13

      iter #   9 total cpu time :   382.5 secs   av.it.:  11.0
      thresh= 5.633E-08 alpha_mix =  0.700 |ddv_scf|^2 =  8.152E-15

     End of self-consistent calculation

     Convergence has been achieved 


     Representation #   8 mode #   8

     Self-consistent Calculation

      iter #   1 total cpu time :   385.2 secs   av.it.:   6.9
      thresh= 1.000E-02 alpha_mix =  0.700 |ddv_scf|^2 =  1.743E-05

      iter #   2 total cpu time :   388.5 secs   av.it.:   9.7
      thresh= 4.175E-04 alpha_mix =  0.700 |ddv_scf|^2 =  8.351E-06

      iter #   3 total cpu time :   391.4 secs   av.it.:   9.4
      thresh= 2.890E-04 alpha_mix =  0.700 |ddv_scf|^2 =  6.057E-08

      iter #   4 total cpu time :   394.5 secs   av.it.:  10.0
      thresh= 2.461E-05 alpha_mix =  0.700 |ddv_scf|^2 =  2.015E-09

      iter #   5 total cpu time :   397.4 secs   av.it.:   9.9
      thresh= 4.489E-06 alpha_mix =  0.700 |ddv_scf|^2 =  5.270E-10

      iter #   6 total cpu time :   400.4 secs   av.it.:   9.8
      thresh= 2.296E-06 alpha_mix =  0.700 |ddv_scf|^2 =  2.389E-12

      iter #   7 total cpu time :   403.9 secs   av.it.:  11.2
      thresh= 1.546E-07 alpha_mix =  0.700 |ddv_scf|^2 =  5.681E-13

      iter #   8 total cpu time :   407.2 secs   av.it.:  11.3
      thresh= 7.537E-08 alpha_mix =  0.700 |ddv_scf|^2 =  8.254E-14

      iter #   9 total cpu time :   410.4 secs   av.it.:  10.8
      thresh= 2.873E-08 alpha_mix =  0.700 |ddv_scf|^2 =  3.242E-15

     End of self-consistent calculation

     Convergence has been achieved 


     Representation #   9 mode #   9

     Self-consistent Calculation

      iter #   1 total cpu time :   412.9 secs   av.it.:   6.5
      thresh= 1.000E-02 alpha_mix =  0.700 |ddv_scf|^2 =  6.990E-08

      iter #   2 total cpu time :   416.3 secs   av.it.:  11.4
      thresh= 2.644E-05 alpha_mix =  0.700 |ddv_scf|^2 =  6.079E-10

      iter #   3 total cpu time :   419.1 secs   av.it.:  10.4
      thresh= 2.466E-06 alpha_mix =  0.700 |ddv_scf|^2 =  5.165E-11

      iter #   4 total cpu time :   421.7 secs   av.it.:  10.1
      thresh= 7.187E-07 alpha_mix =  0.700 |ddv_scf|^2 =  6.987E-14

      iter #   5 total cpu time :   424.3 secs   av.it.:  10.8
      thresh= 2.643E-08 alpha_mix =  0.700 |ddv_scf|^2 =  1.370E-15

     End of self-consistent calculation

     Convergence has been achieved 


     Representation #  10 mode #  10

     Self-consistent Calculation

      iter #   1 total cpu time :   426.2 secs   av.it.:   4.4
      thresh= 1.000E-02 alpha_mix =  0.700 |ddv_scf|^2 =  2.618E-09

      iter #   2 total cpu time :   430.0 secs   av.it.:  11.4
      thresh= 5.117E-06 alpha_mix =  0.700 |ddv_scf|^2 =  9.897E-11

      iter #   3 total cpu time :   433.2 secs   av.it.:  10.9
      thresh= 9.949E-07 alpha_mix =  0.700 |ddv_scf|^2 =  3.408E-12

      iter #   4 total cpu time :   436.1 secs   av.it.:  10.7
      thresh= 1.846E-07 alpha_mix =  0.700 |ddv_scf|^2 =  3.149E-14

      iter #   5 total cpu time :   438.9 secs   av.it.:  10.9
      thresh= 1.775E-08 alpha_mix =  0.700 |ddv_scf|^2 =  3.625E-16

     End of self-consistent calculation

     Convergence has been achieved 


     Representation #  11 mode #  11

     Self-consistent Calculation

      iter #   1 total cpu time :   440.7 secs   av.it.:   4.4
      thresh= 1.000E-02 alpha_mix =  0.700 |ddv_scf|^2 =  2.610E-09

      iter #   2 total cpu time :   443.5 secs   av.it.:  11.4
      thresh= 5.108E-06 alpha_mix =  0.700 |ddv_scf|^2 =  9.755E-11

      iter #   3 total cpu time :   446.3 secs   av.it.:  10.9
      thresh= 9.877E-07 alpha_mix =  0.700 |ddv_scf|^2 =  3.355E-12

      iter #   4 total cpu time :   449.0 secs   av.it.:  10.7
      thresh= 1.832E-07 alpha_mix =  0.700 |ddv_scf|^2 =  3.142E-14

      iter #   5 total cpu time :   451.7 secs   av.it.:  10.9
      thresh= 1.773E-08 alpha_mix =  0.700 |ddv_scf|^2 =  3.338E-16

     End of self-consistent calculation

     Convergence has been achieved 


     Representation #  12 mode #  12

     Self-consistent Calculation

      iter #   1 total cpu time :   453.7 secs   av.it.:   6.5
      thresh= 1.000E-02 alpha_mix =  0.700 |ddv_scf|^2 =  7.590E-07

      iter #   2 total cpu time :   456.2 secs   av.it.:  10.2
      thresh= 8.712E-05 alpha_mix =  0.700 |ddv_scf|^2 =  1.028E-07

      iter #   3 total cpu time :   458.5 secs   av.it.:   8.7
      thresh= 3.206E-05 alpha_mix =  0.700 |ddv_scf|^2 =  3.525E-10

      iter #   4 total cpu time :   461.0 secs   av.it.:   9.7
      thresh= 1.877E-06 alpha_mix =  0.700 |ddv_scf|^2 =  5.249E-14

      iter #   5 total cpu time :   463.7 secs   av.it.:  11.4
      thresh= 2.291E-08 alpha_mix =  0.700 |ddv_scf|^2 =  1.787E-15

     End of self-consistent calculation

     Convergence has been achieved 

     Number of q in the star =    1
     List of q in the star:
          1   0.000000000   0.096225045   0.000000000
     In addition there is the -q list: 
          1  -0.000000000  -0.096225045  -0.000000000

     Diagonalizing the dynamical matrix

     q = (    0.000000000   0.096225045   0.000000000 ) 

 **************************************************************************
     freq (    1) =     -27.581537 [THz] =    -920.021051 [cm-1]
     freq (    2) =     -27.257449 [THz] =    -909.210642 [cm-1]
     freq (    3) =      14.977657 [THz] =     499.600874 [cm-1]
     freq (    4) =      29.161062 [THz] =     972.708311 [cm-1]
     freq (    5) =      29.292755 [THz] =     977.101139 [cm-1]
     freq (    6) =      33.166858 [THz] =    1106.327285 [cm-1]
     freq (    7) =      33.184818 [THz] =    1106.926363 [cm-1]
     freq (    8) =      36.754651 [THz] =    1226.003176 [cm-1]
     freq (    9) =      37.232213 [THz] =    1241.932957 [cm-1]
     freq (   10) =      40.295352 [THz] =    1344.108278 [cm-1]
     freq (   11) =      86.806648 [THz] =    2895.558103 [cm-1]
     freq (   12) =      87.978707 [THz] =    2934.653775 [cm-1]
 **************************************************************************

     Mode symmetry, C_s (m)     point group:

     freq (   1-   1) =       -920.0  [cm-1]   --> A''                
     freq (   2-   2) =       -909.2  [cm-1]   --> A'                 
     freq (   3-   3) =        499.6  [cm-1]   --> A'                 
     freq (   4-   4) =        972.7  [cm-1]   --> A''                
     freq (   5-   5) =        977.1  [cm-1]   --> A'                 
     freq (   6-   6) =       1106.3  [cm-1]   --> A''                
     freq (   7-   7) =       1106.9  [cm-1]   --> A'                 
     freq (   8-   8) =       1226.0  [cm-1]   --> A'                 
     freq (   9-   9) =       1241.9  [cm-1]   --> A''                
     freq (  10-  10) =       1344.1  [cm-1]   --> A'                 
     freq (  11-  11) =       2895.6  [cm-1]   --> A'                 
     freq (  12-  12) =       2934.7  [cm-1]   --> A'                 

     Calculation of q =    0.0000000   0.1924501   0.0000000

     Parallelization info
     --------------------
     sticks:   dense  smooth     PW     G-vecs:    dense   smooth      PW
     Min          47      47     15                 5907     5907    1091
     Max          48      48     16                 5932     5932    1124
     Sum         379     379    121                47317    47317    8807

     Using Slab Decomposition


     Title: 
     phonons of C2H2 on a grid! title line                                      


     bravais-lattice index     =           12
     lattice parameter (alat)  =       4.7961  a.u.
     unit-cell volume          =     752.9055 (a.u.)^3
     number of atoms/cell      =            4
     number of atomic types    =            2
     number of electrons       =        10.00
     number of Kohn-Sham states=           12
     kinetic-energy cutoff     =      60.0000  Ry
     charge density cutoff     =     240.0000  Ry
     Exchange-correlation= PBE
                           (   1   4   3   4   0   0   0)

     celldm(1)=   4.796125  celldm(2)=   1.000000  celldm(3)=   7.880221
     celldm(4)=  -0.500000  celldm(5)=   0.000000  celldm(6)=   0.000000

     crystal axes: (cart. coord. in units of alat)
               a(1) = (   1.000000   0.000000   0.000000 )  
               a(2) = (  -0.500000   0.866025   0.000000 )  
               a(3) = (   0.000000   0.000000   7.880221 )  

     reciprocal axes: (cart. coord. in units 2 pi/alat)
               b(1) = (  1.000000  0.577350 -0.000000 )  
               b(2) = (  0.000000  1.154701  0.000000 )  
               b(3) = (  0.000000 -0.000000  0.126900 )  


     PseudoPot. # 1 for C  read from file:
     ./C.pbe-hgh.UPF
     MD5 check sum: ca26ff84b356733038fc2f5c468d1892
     Pseudo is Norm-conserving, Zval =  4.0
     Generated in analytical, separable form
     Using radial grid of 1073 points,  1 beta functions with: 
                l(1) =   0

     PseudoPot. # 2 for H  read from file:
     ./H.pbe-hgh.UPF
     MD5 check sum: 50ae4f52d34cf16cdfed4bce9c5a191e
     Pseudo is Norm-conserving, Zval =  1.0
     Generated in analytical, separable form
     Using radial grid of  929 points,  0 beta functions with: 

     atomic species   valence    mass     pseudopotential
        C              4.00    12.01100     C ( 1.00)
        H              1.00     1.00790     H ( 1.00)

      2 Sym. Ops. (no inversion) found



   Cartesian axes

     site n.     atom                  positions (alat units)
         1           C   tau(   1) = (  -0.0000001   0.5774215   3.9401877  )
         2           C   tau(   2) = (   0.5000001   0.2887421   4.1212739  )
         3           H   tau(   3) = (  -0.0000001   0.5774352   3.5021743  )
         4           H   tau(   4) = (   0.5000001   0.2887283   4.5592956  )

     number of k points=   156

     Number of k-points >= 100: set verbosity='high' to print them.

     Dense  grid:    47317 G-vectors     FFT dimensions: (  24,  24, 192)

     Estimated max dynamical RAM per process >       3.35 MB

     Estimated total dynamical RAM >      26.80 MB

     The potential is recalculated from file :
     ./_ph0/C2H2.q_3/C2H2.save/charge-density

     Starting wfcs are   10 atomic +    2 random wfcs

     Band Structure Calculation
     Davidson diagonalization with overlap

     ethr =  1.00E-10,  avg # of iterations = 32.4

     total cpu time spent up to now is       62.5 secs

     End of band structure calculation

     Number of k-points >= 100: set verbosity='high' to print the bands.

     highest occupied, lowest unoccupied level (ev):    -2.7253    0.6888

     Writing config to output data dir ./_ph0/C2H2.q_3/C2H2.save/

     phonons of C2H2 on a grid! title line                                      

     bravais-lattice index     =           12
     lattice parameter (alat)  =       4.7961  a.u.
     unit-cell volume          =     752.9055 (a.u.)^3
     number of atoms/cell      =            4
     number of atomic types    =            2
     kinetic-energy cut-off    =      60.0000  Ry
     charge density cut-off    =     240.0000  Ry
     convergence threshold     =      1.0E-14
     beta                      =       0.7000
     number of iterations used =            4
     Exchange-correlation= PBE
                           (   1   4   3   4   0   0   0)


     celldm(1)=    4.79612  celldm(2)=    1.00000  celldm(3)=    7.88022
     celldm(4)=   -0.50000  celldm(5)=    0.00000  celldm(6)=    0.00000

     crystal axes: (cart. coord. in units of alat)
               a(1) = (  1.0000  0.0000  0.0000 )  
               a(2) = ( -0.5000  0.8660  0.0000 )  
               a(3) = (  0.0000  0.0000  7.8802 )  

     reciprocal axes: (cart. coord. in units 2 pi/alat)
               b(1) = (  1.0000  0.5774 -0.0000 )  
               b(2) = (  0.0000  1.1547  0.0000 )  
               b(3) = (  0.0000 -0.0000  0.1269 )  


     Atoms inside the unit cell: 

     Cartesian axes

     site n.  atom      mass           positions (alat units)
        1     C   12.0110   tau(    1) = (   -0.00000    0.57742    3.94019  )
        2     C   12.0110   tau(    2) = (    0.50000    0.28874    4.12127  )
        3     H    1.0079   tau(    3) = (   -0.00000    0.57744    3.50217  )
        4     H    1.0079   tau(    4) = (    0.50000    0.28873    4.55930  )

     Computing dynamical matrix for 
                    q = (   0.0000000   0.1924501   0.0000000 )

      2 Sym.Ops. (no q -> -q+G )


     G cutoff =  139.8403  (   5920 G-vectors)     FFT grid: ( 24, 24,192)
     number of k points=   156

     PseudoPot. # 1 for C  read from file:
     ./C.pbe-hgh.UPF
     MD5 check sum: ca26ff84b356733038fc2f5c468d1892
     Pseudo is Norm-conserving, Zval =  4.0
     Generated in analytical, separable form
     Using radial grid of 1073 points,  1 beta functions with: 
                l(1) =   0

     PseudoPot. # 2 for H  read from file:
     ./H.pbe-hgh.UPF
     MD5 check sum: 50ae4f52d34cf16cdfed4bce9c5a191e
     Pseudo is Norm-conserving, Zval =  1.0
     Generated in analytical, separable form
     Using radial grid of  929 points,  0 beta functions with: 

     Mode symmetry, C_s (m)     point group:


     Atomic displacements:
     There are   12 irreducible representations

     Representation     1      1 modes -  To be done

     Representation     2      1 modes -  To be done

     Representation     3      1 modes -  To be done

     Representation     4      1 modes -  To be done

     Representation     5      1 modes -  To be done

     Representation     6      1 modes -  To be done

     Representation     7      1 modes -  To be done

     Representation     8      1 modes -  To be done

     Representation     9      1 modes -  To be done

     Representation    10      1 modes -  To be done

     Representation    11      1 modes -  To be done

     Representation    12      1 modes -  To be done



     Alpha used in Ewald sum =   2.5000
     PHONON       :   7m26.11s CPU   8m11.76s WALL



     Representation #   1 mode #   1

     Self-consistent Calculation

      iter #   1 total cpu time :   493.7 secs   av.it.:   5.0
      thresh= 1.000E-02 alpha_mix =  0.700 |ddv_scf|^2 =  5.275E-07

      iter #   2 total cpu time :   496.4 secs   av.it.:  10.5
      thresh= 7.263E-05 alpha_mix =  0.700 |ddv_scf|^2 =  4.800E-07

      iter #   3 total cpu time :   498.9 secs   av.it.:   9.7
      thresh= 6.928E-05 alpha_mix =  0.700 |ddv_scf|^2 =  4.780E-09

      iter #   4 total cpu time :   501.5 secs   av.it.:  10.4
      thresh= 6.913E-06 alpha_mix =  0.700 |ddv_scf|^2 =  1.372E-10

      iter #   5 total cpu time :   504.1 secs   av.it.:  10.5
      thresh= 1.171E-06 alpha_mix =  0.700 |ddv_scf|^2 =  2.169E-11

      iter #   6 total cpu time :   506.7 secs   av.it.:  10.5
      thresh= 4.657E-07 alpha_mix =  0.700 |ddv_scf|^2 =  1.597E-13

      iter #   7 total cpu time :   509.4 secs   av.it.:  11.6
      thresh= 3.996E-08 alpha_mix =  0.700 |ddv_scf|^2 =  6.151E-14

      iter #   8 total cpu time :   512.1 secs   av.it.:  11.1
      thresh= 2.480E-08 alpha_mix =  0.700 |ddv_scf|^2 =  5.689E-16

     End of self-consistent calculation

     Convergence has been achieved 


     Representation #   2 mode #   2

     Self-consistent Calculation

      iter #   1 total cpu time :   513.9 secs   av.it.:   5.0
      thresh= 1.000E-02 alpha_mix =  0.700 |ddv_scf|^2 =  5.192E-07

      iter #   2 total cpu time :   517.1 secs   av.it.:  10.4
      thresh= 7.206E-05 alpha_mix =  0.700 |ddv_scf|^2 =  4.633E-07

      iter #   3 total cpu time :   520.6 secs   av.it.:   9.8
      thresh= 6.807E-05 alpha_mix =  0.700 |ddv_scf|^2 =  5.013E-09

      iter #   4 total cpu time :   524.0 secs   av.it.:  10.3
      thresh= 7.080E-06 alpha_mix =  0.700 |ddv_scf|^2 =  1.387E-10

      iter #   5 total cpu time :   527.2 secs   av.it.:  10.5
      thresh= 1.178E-06 alpha_mix =  0.700 |ddv_scf|^2 =  2.104E-11

      iter #   6 total cpu time :   530.5 secs   av.it.:  10.6
      thresh= 4.587E-07 alpha_mix =  0.700 |ddv_scf|^2 =  1.587E-13

      iter #   7 total cpu time :   533.7 secs   av.it.:  11.6
      thresh= 3.984E-08 alpha_mix =  0.700 |ddv_scf|^2 =  6.128E-14

      iter #   8 total cpu time :   536.9 secs   av.it.:  11.2
      thresh= 2.475E-08 alpha_mix =  0.700 |ddv_scf|^2 =  4.843E-16

     End of self-consistent calculation

     Convergence has been achieved 


     Representation #   3 mode #   3

     Self-consistent Calculation

      iter #   1 total cpu time :   539.4 secs   av.it.:   7.1
      thresh= 1.000E-02 alpha_mix =  0.700 |ddv_scf|^2 =  5.724E-06

      iter #   2 total cpu time :   542.5 secs   av.it.:  10.9
      thresh= 2.392E-04 alpha_mix =  0.700 |ddv_scf|^2 =  4.254E-06

      iter #   3 total cpu time :   545.5 secs   av.it.:  10.1
      thresh= 2.063E-04 alpha_mix =  0.700 |ddv_scf|^2 =  5.064E-08

      iter #   4 total cpu time :   548.4 secs   av.it.:  10.4
      thresh= 2.250E-05 alpha_mix =  0.700 |ddv_scf|^2 =  2.179E-08

      iter #   5 total cpu time :   551.5 secs   av.it.:  10.0
      thresh= 1.476E-05 alpha_mix =  0.700 |ddv_scf|^2 =  9.536E-10

      iter #   6 total cpu time :   554.8 secs   av.it.:  10.6
      thresh= 3.088E-06 alpha_mix =  0.700 |ddv_scf|^2 =  4.301E-11

      iter #   7 total cpu time :   558.4 secs   av.it.:  11.2
      thresh= 6.558E-07 alpha_mix =  0.700 |ddv_scf|^2 =  2.887E-12

      iter #   8 total cpu time :   562.4 secs   av.it.:  11.1
      thresh= 1.699E-07 alpha_mix =  0.700 |ddv_scf|^2 =  3.993E-13

      iter #   9 total cpu time :   565.8 secs   av.it.:  10.5
      thresh= 6.319E-08 alpha_mix =  0.700 |ddv_scf|^2 =  1.013E-14

      iter #  10 total cpu time :   569.7 secs   av.it.:  10.9
      thresh= 1.007E-08 alpha_mix =  0.700 |ddv_scf|^2 =  1.237E-15

     End of self-consistent calculation

     Convergence has been achieved 


     Representation #   4 mode #   4

     Self-consistent Calculation

      iter #   1 total cpu time :   572.3 secs   av.it.:   5.4
      thresh= 1.000E-02 alpha_mix =  0.700 |ddv_scf|^2 =  4.306E-07

      iter #   2 total cpu time :   575.5 secs   av.it.:  11.2
      thresh= 6.562E-05 alpha_mix =  0.700 |ddv_scf|^2 =  7.812E-07

      iter #   3 total cpu time :   578.0 secs   av.it.:   9.7
      thresh= 8.838E-05 alpha_mix =  0.700 |ddv_scf|^2 =  3.668E-09

      iter #   4 total cpu time :   580.8 secs   av.it.:  10.9
      thresh= 6.056E-06 alpha_mix =  0.700 |ddv_scf|^2 =  1.636E-10

      iter #   5 total cpu time :   583.5 secs   av.it.:  11.1
      thresh= 1.279E-06 alpha_mix =  0.700 |ddv_scf|^2 =  1.073E-11

      iter #   6 total cpu time :   586.3 secs   av.it.:  11.0
      thresh= 3.276E-07 alpha_mix =  0.700 |ddv_scf|^2 =  2.889E-12

      iter #   7 total cpu time :   589.0 secs   av.it.:  10.4
      thresh= 1.700E-07 alpha_mix =  0.700 |ddv_scf|^2 =  4.862E-13

      iter #   8 total cpu time :   591.7 secs   av.it.:  10.5
      thresh= 6.973E-08 alpha_mix =  0.700 |ddv_scf|^2 =  9.141E-15

     End of self-consistent calculation

     Convergence has been achieved 


     Representation #   5 mode #   5

     Self-consistent Calculation

      iter #   1 total cpu time :   594.0 secs   av.it.:   7.1
      thresh= 1.000E-02 alpha_mix =  0.700 |ddv_scf|^2 =  5.350E-06

      iter #   2 total cpu time :   596.9 secs   av.it.:  10.9
      thresh= 2.313E-04 alpha_mix =  0.700 |ddv_scf|^2 =  4.276E-06

      iter #   3 total cpu time :   599.5 secs   av.it.:  10.1
      thresh= 2.068E-04 alpha_mix =  0.700 |ddv_scf|^2 =  3.607E-08

      iter #   4 total cpu time :   602.2 secs   av.it.:  10.2
      thresh= 1.899E-05 alpha_mix =  0.700 |ddv_scf|^2 =  2.847E-09

      iter #   5 total cpu time :   604.8 secs   av.it.:  10.3
      thresh= 5.336E-06 alpha_mix =  0.700 |ddv_scf|^2 =  1.004E-10

      iter #   6 total cpu time :   607.5 secs   av.it.:  10.9
      thresh= 1.002E-06 alpha_mix =  0.700 |ddv_scf|^2 =  5.516E-12

      iter #   7 total cpu time :   610.5 secs   av.it.:  11.4
      thresh= 2.349E-07 alpha_mix =  0.700 |ddv_scf|^2 =  1.128E-12

      iter #   8 total cpu time :   613.2 secs   av.it.:  10.7
      thresh= 1.062E-07 alpha_mix =  0.700 |ddv_scf|^2 =  1.722E-14

      iter #   9 total cpu time :   615.9 secs   av.it.:  10.5
      thresh= 1.312E-08 alpha_mix =  0.700 |ddv_scf|^2 =  5.089E-16

     End of self-consistent calculation

     Convergence has been achieved 


     Representation #   6 mode #   6

     Self-consistent Calculation

      iter #   1 total cpu time :   617.9 secs   av.it.:   5.4
      thresh= 1.000E-02 alpha_mix =  0.700 |ddv_scf|^2 =  4.503E-07

      iter #   2 total cpu time :   620.8 secs   av.it.:  11.2
      thresh= 6.710E-05 alpha_mix =  0.700 |ddv_scf|^2 =  8.001E-07

      iter #   3 total cpu time :   623.3 secs   av.it.:   9.7
      thresh= 8.945E-05 alpha_mix =  0.700 |ddv_scf|^2 =  3.338E-09

      iter #   4 total cpu time :   626.1 secs   av.it.:  10.9
      thresh= 5.778E-06 alpha_mix =  0.700 |ddv_scf|^2 =  1.660E-10

      iter #   5 total cpu time :   628.9 secs   av.it.:  11.1
      thresh= 1.288E-06 alpha_mix =  0.700 |ddv_scf|^2 =  1.287E-11

      iter #   6 total cpu time :   631.8 secs   av.it.:  11.1
      thresh= 3.588E-07 alpha_mix =  0.700 |ddv_scf|^2 =  5.484E-12

      iter #   7 total cpu time :   634.5 secs   av.it.:  10.5
      thresh= 2.342E-07 alpha_mix =  0.700 |ddv_scf|^2 =  5.720E-13

      iter #   8 total cpu time :   637.2 secs   av.it.:  10.6
      thresh= 7.563E-08 alpha_mix =  0.700 |ddv_scf|^2 =  1.298E-14

      iter #   9 total cpu time :   639.8 secs   av.it.:  10.4
      thresh= 1.139E-08 alpha_mix =  0.700 |ddv_scf|^2 =  2.667E-16

     End of self-consistent calculation

     Convergence has been achieved 


     Representation #   7 mode #   7

     Self-consistent Calculation

      iter #   1 total cpu time :   642.1 secs   av.it.:   7.1
      thresh= 1.000E-02 alpha_mix =  0.700 |ddv_scf|^2 =  1.194E-05

      iter #   2 total cpu time :   644.8 secs   av.it.:  10.6
      thresh= 3.456E-04 alpha_mix =  0.700 |ddv_scf|^2 =  1.373E-05

      iter #   3 total cpu time :   647.5 secs   av.it.:   9.7
      thresh= 3.705E-04 alpha_mix =  0.700 |ddv_scf|^2 =  7.738E-08

      iter #   4 total cpu time :   650.2 secs   av.it.:  10.6
      thresh= 2.782E-05 alpha_mix =  0.700 |ddv_scf|^2 =  1.718E-08

      iter #   5 total cpu time :   652.9 secs   av.it.:  10.6
      thresh= 1.311E-05 alpha_mix =  0.700 |ddv_scf|^2 =  5.005E-10

      iter #   6 total cpu time :   655.6 secs   av.it.:  10.7
      thresh= 2.237E-06 alpha_mix =  0.700 |ddv_scf|^2 =  3.305E-11

      iter #   7 total cpu time :   658.2 secs   av.it.:  10.2
      thresh= 5.749E-07 alpha_mix =  0.700 |ddv_scf|^2 =  4.682E-13

      iter #   8 total cpu time :   661.0 secs   av.it.:  11.3
      thresh= 6.842E-08 alpha_mix =  0.700 |ddv_scf|^2 =  1.815E-13

      iter #   9 total cpu time :   663.8 secs   av.it.:  11.1
      thresh= 4.260E-08 alpha_mix =  0.700 |ddv_scf|^2 =  4.719E-15

     End of self-consistent calculation

     Convergence has been achieved 


     Representation #   8 mode #   8

     Self-consistent Calculation

      iter #   1 total cpu time :   666.1 secs   av.it.:   7.1
      thresh= 1.000E-02 alpha_mix =  0.700 |ddv_scf|^2 =  1.128E-05

      iter #   2 total cpu time :   668.8 secs   av.it.:  10.6
      thresh= 3.359E-04 alpha_mix =  0.700 |ddv_scf|^2 =  1.364E-05

      iter #   3 total cpu time :   671.3 secs   av.it.:   9.6
      thresh= 3.693E-04 alpha_mix =  0.700 |ddv_scf|^2 =  2.136E-08

      iter #   4 total cpu time :   673.9 secs   av.it.:  10.7
      thresh= 1.461E-05 alpha_mix =  0.700 |ddv_scf|^2 =  9.380E-10

      iter #   5 total cpu time :   676.5 secs   av.it.:  10.4
      thresh= 3.063E-06 alpha_mix =  0.700 |ddv_scf|^2 =  1.307E-10

      iter #   6 total cpu time :   679.2 secs   av.it.:  10.4
      thresh= 1.143E-06 alpha_mix =  0.700 |ddv_scf|^2 =  2.496E-12

      iter #   7 total cpu time :   682.0 secs   av.it.:  10.8
      thresh= 1.580E-07 alpha_mix =  0.700 |ddv_scf|^2 =  2.422E-13

      iter #   8 total cpu time :   684.8 secs   av.it.:  11.3
      thresh= 4.922E-08 alpha_mix =  0.700 |ddv_scf|^2 =  2.855E-14

      iter #   9 total cpu time :   687.7 secs   av.it.:  11.2
      thresh= 1.690E-08 alpha_mix =  0.700 |ddv_scf|^2 =  1.319E-15

     End of self-consistent calculation

     Convergence has been achieved 


     Representation #   9 mode #   9

     Self-consistent Calculation

      iter #   1 total cpu time :   689.9 secs   av.it.:   6.5
      thresh= 1.000E-02 alpha_mix =  0.700 |ddv_scf|^2 =  8.047E-08

      iter #   2 total cpu time :   693.0 secs   av.it.:  11.5
      thresh= 2.837E-05 alpha_mix =  0.700 |ddv_scf|^2 =  6.859E-10

      iter #   3 total cpu time :   695.8 secs   av.it.:  10.7
      thresh= 2.619E-06 alpha_mix =  0.700 |ddv_scf|^2 =  5.815E-11

      iter #   4 total cpu time :   698.3 secs   av.it.:  10.1
      thresh= 7.625E-07 alpha_mix =  0.700 |ddv_scf|^2 =  2.188E-13

      iter #   5 total cpu time :   701.1 secs   av.it.:  10.8
      thresh= 4.677E-08 alpha_mix =  0.700 |ddv_scf|^2 =  1.431E-15

     End of self-consistent calculation

     Convergence has been achieved 


     Representation #  10 mode #  10

     Self-consistent Calculation

      iter #   1 total cpu time :   702.9 secs   av.it.:   4.4
      thresh= 1.000E-02 alpha_mix =  0.700 |ddv_scf|^2 =  2.841E-09

      iter #   2 total cpu time :   705.9 secs   av.it.:  11.3
      thresh= 5.330E-06 alpha_mix =  0.700 |ddv_scf|^2 =  1.008E-10

      iter #   3 total cpu time :   708.6 secs   av.it.:  11.0
      thresh= 1.004E-06 alpha_mix =  0.700 |ddv_scf|^2 =  3.916E-12

      iter #   4 total cpu time :   711.8 secs   av.it.:  10.7
      thresh= 1.979E-07 alpha_mix =  0.700 |ddv_scf|^2 =  4.238E-14

      iter #   5 total cpu time :   714.5 secs   av.it.:  10.8
      thresh= 2.059E-08 alpha_mix =  0.700 |ddv_scf|^2 =  5.793E-16

     End of self-consistent calculation

     Convergence has been achieved 


     Representation #  11 mode #  11

     Self-consistent Calculation

      iter #   1 total cpu time :   716.4 secs   av.it.:   4.4
      thresh= 1.000E-02 alpha_mix =  0.700 |ddv_scf|^2 =  2.831E-09

      iter #   2 total cpu time :   719.3 secs   av.it.:  11.3
      thresh= 5.321E-06 alpha_mix =  0.700 |ddv_scf|^2 =  9.935E-11

      iter #   3 total cpu time :   722.2 secs   av.it.:  11.0
      thresh= 9.967E-07 alpha_mix =  0.700 |ddv_scf|^2 =  3.863E-12

      iter #   4 total cpu time :   724.8 secs   av.it.:  10.7
      thresh= 1.966E-07 alpha_mix =  0.700 |ddv_scf|^2 =  4.250E-14

      iter #   5 total cpu time :   727.4 secs   av.it.:  10.8
      thresh= 2.062E-08 alpha_mix =  0.700 |ddv_scf|^2 =  5.367E-16

     End of self-consistent calculation

     Convergence has been achieved 


     Representation #  12 mode #  12

     Self-consistent Calculation

      iter #   1 total cpu time :   729.5 secs   av.it.:   6.5
      thresh= 1.000E-02 alpha_mix =  0.700 |ddv_scf|^2 =  7.688E-07

      iter #   2 total cpu time :   732.0 secs   av.it.:  10.3
      thresh= 8.768E-05 alpha_mix =  0.700 |ddv_scf|^2 =  1.028E-07

      iter #   3 total cpu time :   734.3 secs   av.it.:   9.0
      thresh= 3.207E-05 alpha_mix =  0.700 |ddv_scf|^2 =  5.846E-10

      iter #   4 total cpu time :   736.8 secs   av.it.:  10.0
      thresh= 2.418E-06 alpha_mix =  0.700 |ddv_scf|^2 =  1.248E-13

      iter #   5 total cpu time :   739.6 secs   av.it.:  11.5
      thresh= 3.532E-08 alpha_mix =  0.700 |ddv_scf|^2 =  1.902E-15

     End of self-consistent calculation

     Convergence has been achieved 

     Number of q in the star =    1
     List of q in the star:
          1   0.000000000   0.192450090   0.000000000
     In addition there is the -q list: 
          1  -0.000000000  -0.192450090  -0.000000000

     Diagonalizing the dynamical matrix

     q = (    0.000000000   0.192450090   0.000000000 ) 

 **************************************************************************
     freq (    1) =     -26.868411 [THz] =    -896.233708 [cm-1]
     freq (    2) =     -25.689868 [THz] =    -856.921771 [cm-1]
     freq (    3) =      15.495179 [THz] =     516.863523 [cm-1]
     freq (    4) =      28.395544 [THz] =     947.173401 [cm-1]
     freq (    5) =      29.030874 [THz] =     968.365725 [cm-1]
     freq (    6) =      33.123247 [THz] =    1104.872596 [cm-1]
     freq (    7) =      33.257970 [THz] =    1109.366459 [cm-1]
     freq (    8) =      37.062945 [THz] =    1236.286769 [cm-1]
     freq (    9) =      37.242397 [THz] =    1242.272655 [cm-1]
     freq (   10) =      40.249027 [THz] =    1342.563026 [cm-1]
     freq (   11) =      86.717845 [THz] =    2892.595946 [cm-1]
     freq (   12) =      87.734080 [THz] =    2926.493917 [cm-1]
 **************************************************************************

     Mode symmetry, C_s (m)     point group:

     freq (   1-   1) =       -896.2  [cm-1]   --> A''                
     freq (   2-   2) =       -856.9  [cm-1]   --> A'                 
     freq (   3-   3) =        516.9  [cm-1]   --> A'                 
     freq (   4-   4) =        947.2  [cm-1]   --> A''                
     freq (   5-   5) =        968.4  [cm-1]   --> A'                 
     freq (   6-   6) =       1104.9  [cm-1]   --> A''                
     freq (   7-   7) =       1109.4  [cm-1]   --> A'                 
     freq (   8-   8) =       1236.3  [cm-1]   --> A'                 
     freq (   9-   9) =       1242.3  [cm-1]   --> A''                
     freq (  10-  10) =       1342.6  [cm-1]   --> A'                 
     freq (  11-  11) =       2892.6  [cm-1]   --> A'                 
     freq (  12-  12) =       2926.5  [cm-1]   --> A'                 

     Calculation of q =    0.0000000   0.2886751   0.0000000

     Parallelization info
     --------------------
     sticks:   dense  smooth     PW     G-vecs:    dense   smooth      PW
     Min          47      47     15                 5907     5907    1127
     Max          48      48     16                 5932     5932    1162
     Sum         379     379    121                47317    47317    9095

     Using Slab Decomposition


     Title: 
     phonons of C2H2 on a grid! title line                                      


     bravais-lattice index     =           12
     lattice parameter (alat)  =       4.7961  a.u.
     unit-cell volume          =     752.9055 (a.u.)^3
     number of atoms/cell      =            4
     number of atomic types    =            2
     number of electrons       =        10.00
     number of Kohn-Sham states=           12
     kinetic-energy cutoff     =      60.0000  Ry
     charge density cutoff     =     240.0000  Ry
     Exchange-correlation= PBE
                           (   1   4   3   4   0   0   0)

     celldm(1)=   4.796125  celldm(2)=   1.000000  celldm(3)=   7.880221
     celldm(4)=  -0.500000  celldm(5)=   0.000000  celldm(6)=   0.000000

     crystal axes: (cart. coord. in units of alat)
               a(1) = (   1.000000   0.000000   0.000000 )  
               a(2) = (  -0.500000   0.866025   0.000000 )  
               a(3) = (   0.000000   0.000000   7.880221 )  

     reciprocal axes: (cart. coord. in units 2 pi/alat)
               b(1) = (  1.000000  0.577350 -0.000000 )  
               b(2) = (  0.000000  1.154701  0.000000 )  
               b(3) = (  0.000000 -0.000000  0.126900 )  


     PseudoPot. # 1 for C  read from file:
     ./C.pbe-hgh.UPF
     MD5 check sum: ca26ff84b356733038fc2f5c468d1892
     Pseudo is Norm-conserving, Zval =  4.0
     Generated in analytical, separable form
     Using radial grid of 1073 points,  1 beta functions with: 
                l(1) =   0

     PseudoPot. # 2 for H  read from file:
     ./H.pbe-hgh.UPF
     MD5 check sum: 50ae4f52d34cf16cdfed4bce9c5a191e
     Pseudo is Norm-conserving, Zval =  1.0
     Generated in analytical, separable form
     Using radial grid of  929 points,  0 beta functions with: 

     atomic species   valence    mass     pseudopotential
        C              4.00    12.01100     C ( 1.00)
        H              1.00     1.00790     H ( 1.00)

      2 Sym. Ops. (no inversion) found



   Cartesian axes

     site n.     atom                  positions (alat units)
         1           C   tau(   1) = (  -0.0000001   0.5774215   3.9401877  )
         2           C   tau(   2) = (   0.5000001   0.2887421   4.1212739  )
         3           H   tau(   3) = (  -0.0000001   0.5774352   3.5021743  )
         4           H   tau(   4) = (   0.5000001   0.2887283   4.5592956  )

     number of k points=   156

     Number of k-points >= 100: set verbosity='high' to print them.

     Dense  grid:    47317 G-vectors     FFT dimensions: (  24,  24, 192)

     Estimated max dynamical RAM per process >       3.35 MB

     Estimated total dynamical RAM >      26.77 MB

     The potential is recalculated from file :
     ./_ph0/C2H2.q_4/C2H2.save/charge-density

     Starting wfcs are   10 atomic +    2 random wfcs

     Band Structure Calculation
     Davidson diagonalization with overlap

     ethr =  1.00E-10,  avg # of iterations = 32.7

     total cpu time spent up to now is       89.4 secs

     End of band structure calculation

     Number of k-points >= 100: set verbosity='high' to print the bands.

     highest occupied, lowest unoccupied level (ev):    -2.7253    0.6888

     Writing config to output data dir ./_ph0/C2H2.q_4/C2H2.save/

     phonons of C2H2 on a grid! title line                                      

     bravais-lattice index     =           12
     lattice parameter (alat)  =       4.7961  a.u.
     unit-cell volume          =     752.9055 (a.u.)^3
     number of atoms/cell      =            4
     number of atomic types    =            2
     kinetic-energy cut-off    =      60.0000  Ry
     charge density cut-off    =     240.0000  Ry
     convergence threshold     =      1.0E-14
     beta                      =       0.7000
     number of iterations used =            4
     Exchange-correlation= PBE
                           (   1   4   3   4   0   0   0)


     celldm(1)=    4.79612  celldm(2)=    1.00000  celldm(3)=    7.88022
     celldm(4)=   -0.50000  celldm(5)=    0.00000  celldm(6)=    0.00000

     crystal axes: (cart. coord. in units of alat)
               a(1) = (  1.0000  0.0000  0.0000 )  
               a(2) = ( -0.5000  0.8660  0.0000 )  
               a(3) = (  0.0000  0.0000  7.8802 )  

     reciprocal axes: (cart. coord. in units 2 pi/alat)
               b(1) = (  1.0000  0.5774 -0.0000 )  
               b(2) = (  0.0000  1.1547  0.0000 )  
               b(3) = (  0.0000 -0.0000  0.1269 )  


     Atoms inside the unit cell: 

[...]

      iter #   4 total cpu time : 18721.6 secs   av.it.:  11.0
      thresh= 2.448E-06 alpha_mix =  0.700 |ddv_scf|^2 =  1.759E-11

      iter #   5 total cpu time : 18726.6 secs   av.it.:  11.5
      thresh= 4.194E-07 alpha_mix =  0.700 |ddv_scf|^2 =  2.059E-12

      iter #   6 total cpu time : 18731.5 secs   av.it.:  11.4
      thresh= 1.435E-07 alpha_mix =  0.700 |ddv_scf|^2 =  9.279E-14

      iter #   7 total cpu time : 18736.4 secs   av.it.:  11.2
      thresh= 3.046E-08 alpha_mix =  0.700 |ddv_scf|^2 =  1.473E-15

     End of self-consistent calculation

     Convergence has been achieved 


     Representation #   2 mode #   2

     Self-consistent Calculation

      iter #   1 total cpu time : 18739.9 secs   av.it.:   4.8
      thresh= 1.000E-02 alpha_mix =  0.700 |ddv_scf|^2 =  1.940E-08

      iter #   2 total cpu time : 18744.9 secs   av.it.:  11.5
      thresh= 1.393E-05 alpha_mix =  0.700 |ddv_scf|^2 =  4.920E-09

      iter #   3 total cpu time : 18749.6 secs   av.it.:  11.2
      thresh= 7.014E-06 alpha_mix =  0.700 |ddv_scf|^2 =  5.827E-10

      iter #   4 total cpu time : 18754.4 secs   av.it.:  11.0
      thresh= 2.414E-06 alpha_mix =  0.700 |ddv_scf|^2 =  1.651E-11

      iter #   5 total cpu time : 18759.3 secs   av.it.:  11.3
      thresh= 4.063E-07 alpha_mix =  0.700 |ddv_scf|^2 =  6.369E-13

      iter #   6 total cpu time : 18764.4 secs   av.it.:  11.6
      thresh= 7.981E-08 alpha_mix =  0.700 |ddv_scf|^2 =  1.333E-13

      iter #   7 total cpu time : 18769.2 secs   av.it.:  11.4
      thresh= 3.651E-08 alpha_mix =  0.700 |ddv_scf|^2 =  2.166E-15

     End of self-consistent calculation

     Convergence has been achieved 


     Representation #   3 mode #   3

     Self-consistent Calculation

      iter #   1 total cpu time : 18773.3 secs   av.it.:   7.1
      thresh= 1.000E-02 alpha_mix =  0.700 |ddv_scf|^2 =  1.924E-06

      iter #   2 total cpu time : 18778.3 secs   av.it.:  11.6
      thresh= 1.387E-04 alpha_mix =  0.700 |ddv_scf|^2 =  1.442E-06

      iter #   3 total cpu time : 18783.0 secs   av.it.:  11.0
      thresh= 1.201E-04 alpha_mix =  0.700 |ddv_scf|^2 =  8.406E-09

      iter #   4 total cpu time : 18787.9 secs   av.it.:  11.2
      thresh= 9.168E-06 alpha_mix =  0.700 |ddv_scf|^2 =  2.240E-10

      iter #   5 total cpu time : 18792.9 secs   av.it.:  11.6
      thresh= 1.497E-06 alpha_mix =  0.700 |ddv_scf|^2 =  4.385E-11

      iter #   6 total cpu time : 18797.8 secs   av.it.:  11.3
      thresh= 6.622E-07 alpha_mix =  0.700 |ddv_scf|^2 =  4.709E-13

      iter #   7 total cpu time : 18802.7 secs   av.it.:  11.1
      thresh= 6.862E-08 alpha_mix =  0.700 |ddv_scf|^2 =  5.275E-15

     End of self-consistent calculation

     Convergence has been achieved 


     Representation #   4 mode #   4

     Self-consistent Calculation

      iter #   1 total cpu time : 18806.5 secs   av.it.:   6.9
      thresh= 1.000E-02 alpha_mix =  0.700 |ddv_scf|^2 =  7.653E-07

      iter #   2 total cpu time : 18811.4 secs   av.it.:  11.3
      thresh= 8.748E-05 alpha_mix =  0.700 |ddv_scf|^2 =  1.048E-07

      iter #   3 total cpu time : 18816.3 secs   av.it.:  11.3
      thresh= 3.237E-05 alpha_mix =  0.700 |ddv_scf|^2 =  3.756E-08

      iter #   4 total cpu time : 18821.0 secs   av.it.:  11.0
      thresh= 1.938E-05 alpha_mix =  0.700 |ddv_scf|^2 =  3.153E-09

      iter #   5 total cpu time : 18825.8 secs   av.it.:  10.9
      thresh= 5.615E-06 alpha_mix =  0.700 |ddv_scf|^2 =  2.822E-11

      iter #   6 total cpu time : 18830.7 secs   av.it.:  11.1
      thresh= 5.313E-07 alpha_mix =  0.700 |ddv_scf|^2 =  3.623E-12

      iter #   7 total cpu time : 18835.6 secs   av.it.:  11.6
      thresh= 1.903E-07 alpha_mix =  0.700 |ddv_scf|^2 =  1.147E-12

      iter #   8 total cpu time : 18840.5 secs   av.it.:  11.2
      thresh= 1.071E-07 alpha_mix =  0.700 |ddv_scf|^2 =  3.578E-15

     End of self-consistent calculation

     Convergence has been achieved 


     Representation #   5 mode #   5

     Self-consistent Calculation

      iter #   1 total cpu time : 18843.9 secs   av.it.:   5.3
      thresh= 1.000E-02 alpha_mix =  0.700 |ddv_scf|^2 =  7.743E-08

      iter #   2 total cpu time : 18848.9 secs   av.it.:  12.0
      thresh= 2.783E-05 alpha_mix =  0.700 |ddv_scf|^2 =  7.273E-08

      iter #   3 total cpu time : 18853.7 secs   av.it.:  11.0
      thresh= 2.697E-05 alpha_mix =  0.700 |ddv_scf|^2 =  2.256E-10

      iter #   4 total cpu time : 18858.7 secs   av.it.:  11.6
      thresh= 1.502E-06 alpha_mix =  0.700 |ddv_scf|^2 =  5.444E-11

      iter #   5 total cpu time : 18863.8 secs   av.it.:  11.5
      thresh= 7.378E-07 alpha_mix =  0.700 |ddv_scf|^2 =  2.562E-12

      iter #   6 total cpu time : 18868.7 secs   av.it.:  11.5
      thresh= 1.601E-07 alpha_mix =  0.700 |ddv_scf|^2 =  5.404E-14

      iter #   7 total cpu time : 18873.8 secs   av.it.:  11.2
      thresh= 2.325E-08 alpha_mix =  0.700 |ddv_scf|^2 =  2.248E-15

     End of self-consistent calculation

     Convergence has been achieved 


     Representation #   6 mode #   6

     Self-consistent Calculation

      iter #   1 total cpu time : 18877.1 secs   av.it.:   5.3
      thresh= 1.000E-02 alpha_mix =  0.700 |ddv_scf|^2 =  6.919E-08

      iter #   2 total cpu time : 18882.3 secs   av.it.:  12.0
      thresh= 2.630E-05 alpha_mix =  0.700 |ddv_scf|^2 =  6.267E-08

      iter #   3 total cpu time : 18887.0 secs   av.it.:  11.0
      thresh= 2.503E-05 alpha_mix =  0.700 |ddv_scf|^2 =  2.410E-10

      iter #   4 total cpu time : 18892.3 secs   av.it.:  11.6
      thresh= 1.552E-06 alpha_mix =  0.700 |ddv_scf|^2 =  6.675E-11

      iter #   5 total cpu time : 18897.2 secs   av.it.:  11.5
      thresh= 8.170E-07 alpha_mix =  0.700 |ddv_scf|^2 =  2.662E-12

      iter #   6 total cpu time : 18902.2 secs   av.it.:  11.5
      thresh= 1.632E-07 alpha_mix =  0.700 |ddv_scf|^2 =  7.016E-14

      iter #   7 total cpu time : 18907.2 secs   av.it.:  11.1
      thresh= 2.649E-08 alpha_mix =  0.700 |ddv_scf|^2 =  3.864E-15

     End of self-consistent calculation

     Convergence has been achieved 


     Representation #   7 mode #   7

     Self-consistent Calculation

      iter #   1 total cpu time : 18911.2 secs   av.it.:   6.8
      thresh= 1.000E-02 alpha_mix =  0.700 |ddv_scf|^2 =  3.585E-07

      iter #   2 total cpu time : 18916.1 secs   av.it.:  11.6
      thresh= 5.988E-05 alpha_mix =  0.700 |ddv_scf|^2 =  2.368E-08

      iter #   3 total cpu time : 18921.1 secs   av.it.:  11.5
      thresh= 1.539E-05 alpha_mix =  0.700 |ddv_scf|^2 =  2.945E-09

      iter #   4 total cpu time : 18925.9 secs   av.it.:  11.1
      thresh= 5.427E-06 alpha_mix =  0.700 |ddv_scf|^2 =  1.624E-10

      iter #   5 total cpu time : 18930.7 secs   av.it.:  11.0
      thresh= 1.275E-06 alpha_mix =  0.700 |ddv_scf|^2 =  6.049E-12

      iter #   6 total cpu time : 18935.7 secs   av.it.:  11.5
      thresh= 2.459E-07 alpha_mix =  0.700 |ddv_scf|^2 =  1.083E-12

      iter #   7 total cpu time : 18940.6 secs   av.it.:  11.3
      thresh= 1.040E-07 alpha_mix =  0.700 |ddv_scf|^2 =  5.460E-15

     End of self-consistent calculation

     Convergence has been achieved 


     Representation #   8 mode #   8

     Self-consistent Calculation

      iter #   1 total cpu time : 18944.5 secs   av.it.:   6.9
      thresh= 1.000E-02 alpha_mix =  0.700 |ddv_scf|^2 =  9.816E-07

      iter #   2 total cpu time : 18949.3 secs   av.it.:  11.1
      thresh= 9.907E-05 alpha_mix =  0.700 |ddv_scf|^2 =  1.438E-07

      iter #   3 total cpu time : 18954.3 secs   av.it.:  11.4
      thresh= 3.793E-05 alpha_mix =  0.700 |ddv_scf|^2 =  3.126E-08

      iter #   4 total cpu time : 18959.2 secs   av.it.:  11.4
      thresh= 1.768E-05 alpha_mix =  0.700 |ddv_scf|^2 =  3.851E-09

      iter #   5 total cpu time : 18964.0 secs   av.it.:  11.3
      thresh= 6.205E-06 alpha_mix =  0.700 |ddv_scf|^2 =  6.258E-11

      iter #   6 total cpu time : 18969.1 secs   av.it.:  11.4
      thresh= 7.911E-07 alpha_mix =  0.700 |ddv_scf|^2 =  1.736E-11

      iter #   7 total cpu time : 18974.0 secs   av.it.:  11.1
      thresh= 4.166E-07 alpha_mix =  0.700 |ddv_scf|^2 =  3.034E-13

      iter #   8 total cpu time : 18978.6 secs   av.it.:  10.5
      thresh= 5.508E-08 alpha_mix =  0.700 |ddv_scf|^2 =  7.008E-15

     End of self-consistent calculation

     Convergence has been achieved 


     Representation #   9 mode #   9

     Self-consistent Calculation

      iter #   1 total cpu time : 18981.8 secs   av.it.:   5.0
      thresh= 1.000E-02 alpha_mix =  0.700 |ddv_scf|^2 =  5.577E-08

      iter #   2 total cpu time : 18986.8 secs   av.it.:  11.5
      thresh= 2.362E-05 alpha_mix =  0.700 |ddv_scf|^2 =  2.941E-08

      iter #   3 total cpu time : 18991.5 secs   av.it.:  11.0
      thresh= 1.715E-05 alpha_mix =  0.700 |ddv_scf|^2 =  8.790E-10

      iter #   4 total cpu time : 18996.3 secs   av.it.:  11.0
      thresh= 2.965E-06 alpha_mix =  0.700 |ddv_scf|^2 =  1.354E-11

      iter #   5 total cpu time : 19001.4 secs   av.it.:  11.5
      thresh= 3.680E-07 alpha_mix =  0.700 |ddv_scf|^2 =  1.886E-12

      iter #   6 total cpu time : 19006.3 secs   av.it.:  11.4
      thresh= 1.373E-07 alpha_mix =  0.700 |ddv_scf|^2 =  1.224E-13

      iter #   7 total cpu time : 19011.3 secs   av.it.:  11.3
      thresh= 3.498E-08 alpha_mix =  0.700 |ddv_scf|^2 =  2.157E-15

     End of self-consistent calculation

     Convergence has been achieved 


     Representation #  10 mode #  10

     Self-consistent Calculation

      iter #   1 total cpu time : 19014.5 secs   av.it.:   5.0
      thresh= 1.000E-02 alpha_mix =  0.700 |ddv_scf|^2 =  4.612E-08

      iter #   2 total cpu time : 19019.4 secs   av.it.:  11.5
      thresh= 2.148E-05 alpha_mix =  0.700 |ddv_scf|^2 =  1.848E-08

      iter #   3 total cpu time : 19024.3 secs   av.it.:  11.1
      thresh= 1.359E-05 alpha_mix =  0.700 |ddv_scf|^2 =  1.011E-09

      iter #   4 total cpu time : 19029.0 secs   av.it.:  11.0
      thresh= 3.180E-06 alpha_mix =  0.700 |ddv_scf|^2 =  1.776E-11

      iter #   5 total cpu time : 19034.1 secs   av.it.:  11.5
      thresh= 4.215E-07 alpha_mix =  0.700 |ddv_scf|^2 =  1.592E-12

      iter #   6 total cpu time : 19039.0 secs   av.it.:  11.5
      thresh= 1.262E-07 alpha_mix =  0.700 |ddv_scf|^2 =  1.408E-13

      iter #   7 total cpu time : 19043.9 secs   av.it.:  11.3
      thresh= 3.752E-08 alpha_mix =  0.700 |ddv_scf|^2 =  2.684E-15

     End of self-consistent calculation

     Convergence has been achieved 


     Representation #  11 mode #  11

     Self-consistent Calculation

      iter #   1 total cpu time : 19047.9 secs   av.it.:   7.1
      thresh= 1.000E-02 alpha_mix =  0.700 |ddv_scf|^2 =  2.852E-06

      iter #   2 total cpu time : 19052.9 secs   av.it.:  11.5
      thresh= 1.689E-04 alpha_mix =  0.700 |ddv_scf|^2 =  1.718E-06

      iter #   3 total cpu time : 19057.6 secs   av.it.:  11.0
      thresh= 1.311E-04 alpha_mix =  0.700 |ddv_scf|^2 =  7.497E-08

      iter #   4 total cpu time : 19062.6 secs   av.it.:  11.0
      thresh= 2.738E-05 alpha_mix =  0.700 |ddv_scf|^2 =  6.319E-09

      iter #   5 total cpu time : 19067.5 secs   av.it.:  11.5
      thresh= 7.949E-06 alpha_mix =  0.700 |ddv_scf|^2 =  3.587E-10

      iter #   6 total cpu time : 19072.5 secs   av.it.:  11.2
      thresh= 1.894E-06 alpha_mix =  0.700 |ddv_scf|^2 =  1.597E-12

      iter #   7 total cpu time : 19077.8 secs   av.it.:  11.3
      thresh= 1.264E-07 alpha_mix =  0.700 |ddv_scf|^2 =  2.562E-14

      iter #   8 total cpu time : 19082.7 secs   av.it.:  11.3
      thresh= 1.601E-08 alpha_mix =  0.700 |ddv_scf|^2 =  1.304E-15

     End of self-consistent calculation

     Convergence has been achieved 


     Representation #  12 mode #  12

     Self-consistent Calculation

      iter #   1 total cpu time : 19086.5 secs   av.it.:   7.0
      thresh= 1.000E-02 alpha_mix =  0.700 |ddv_scf|^2 =  6.004E-07

      iter #   2 total cpu time : 19091.6 secs   av.it.:  11.7
      thresh= 7.749E-05 alpha_mix =  0.700 |ddv_scf|^2 =  2.890E-07

      iter #   3 total cpu time : 19096.6 secs   av.it.:  11.2
      thresh= 5.376E-05 alpha_mix =  0.700 |ddv_scf|^2 =  1.013E-08

      iter #   4 total cpu time : 19101.4 secs   av.it.:  11.0
      thresh= 1.006E-05 alpha_mix =  0.700 |ddv_scf|^2 =  1.948E-10

      iter #   5 total cpu time : 19106.3 secs   av.it.:  11.6
      thresh= 1.396E-06 alpha_mix =  0.700 |ddv_scf|^2 =  4.234E-11

      iter #   6 total cpu time : 19111.2 secs   av.it.:  11.4
      thresh= 6.507E-07 alpha_mix =  0.700 |ddv_scf|^2 =  1.015E-12

      iter #   7 total cpu time : 19116.0 secs   av.it.:  11.0
      thresh= 1.007E-07 alpha_mix =  0.700 |ddv_scf|^2 =  3.763E-15

     End of self-consistent calculation

     Convergence has been achieved 

     Number of q in the star =    2
     List of q in the star:
          1  -0.500000000   0.000000000   0.000000000
          2   0.500000000   0.000000000   0.000000000

     Diagonalizing the dynamical matrix

     q = (   -0.500000000   0.000000000   0.000000000 ) 

 **************************************************************************
     freq (    1) =     -23.514439 [THz] =    -784.357253 [cm-1]
     freq (    2) =     -18.393711 [THz] =    -613.548147 [cm-1]
     freq (    3) =      16.822494 [THz] =     561.138009 [cm-1]
     freq (    4) =      23.327661 [THz] =     778.127000 [cm-1]
     freq (    5) =      28.577257 [THz] =     953.234690 [cm-1]
     freq (    6) =      32.865329 [THz] =    1096.269372 [cm-1]
     freq (    7) =      34.604397 [THz] =    1154.278441 [cm-1]
     freq (    8) =      37.328957 [THz] =    1245.159961 [cm-1]
     freq (    9) =      37.929314 [THz] =    1265.185737 [cm-1]
     freq (   10) =      40.603559 [THz] =    1354.388929 [cm-1]
     freq (   11) =      86.565558 [THz] =    2887.516204 [cm-1]
     freq (   12) =      86.918131 [THz] =    2899.276771 [cm-1]
 **************************************************************************

     Mode symmetry, C_1 (1)     point group:

     freq (   1-   1) =       -784.4  [cm-1]   --> A                  
     freq (   2-   2) =       -613.5  [cm-1]   --> A                  
     freq (   3-   3) =        561.1  [cm-1]   --> A                  
     freq (   4-   4) =        778.1  [cm-1]   --> A                  
     freq (   5-   5) =        953.2  [cm-1]   --> A                  
     freq (   6-   6) =       1096.3  [cm-1]   --> A                  
     freq (   7-   7) =       1154.3  [cm-1]   --> A                  
     freq (   8-   8) =       1245.2  [cm-1]   --> A                  
     freq (   9-   9) =       1265.2  [cm-1]   --> A                  
     freq (  10-  10) =       1354.4  [cm-1]   --> A                  
     freq (  11-  11) =       2887.5  [cm-1]   --> A                  
     freq (  12-  12) =       2899.3  [cm-1]   --> A                  

     init_run     :      3.38s CPU      3.79s WALL (      42 calls)
     electrons    :   1800.88s CPU   1920.43s WALL (      42 calls)

     Called by init_run:
     wfcinit      :      0.01s CPU      0.02s WALL (      42 calls)
     potinit      :      0.38s CPU      0.54s WALL (      42 calls)
     hinit0       :      1.66s CPU      1.72s WALL (      42 calls)

     Called by electrons:
     c_bands      :   1800.88s CPU   1920.41s WALL (      42 calls)
     v_of_rho     :      0.34s CPU      0.36s WALL (      43 calls)

     Called by c_bands:
     init_us_2    :     28.70s CPU     32.63s WALL (  673586 calls)
     init_us_2:cp :     27.63s CPU     31.55s WALL (  673586 calls)
     cegterg      :   1730.96s CPU   1843.04s WALL (   24195 calls)

     Called by *egterg:
     cdiaghg      :    157.44s CPU    166.65s WALL (  377836 calls)
     h_psi        :  12513.02s CPU  13756.44s WALL ( 6661394 calls)
     g_psi        :      6.78s CPU      7.13s WALL (  366742 calls)

     Called by h_psi:
     h_psi:calbec :    286.01s CPU    313.25s WALL ( 6661394 calls)
     vloc_psi     :  12085.23s CPU  13287.27s WALL ( 6661394 calls)
     add_vuspsi   :     89.12s CPU     98.53s WALL ( 6661394 calls)

     General routines
     calbec       :    486.47s CPU    532.92s WALL (13245106 calls)
     fft          :     17.43s CPU     18.93s WALL (   44206 calls)
     ffts         :     25.24s CPU     28.50s WALL (   73788 calls)
     fftw         :  13481.15s CPU  14893.45s WALL (72588564 calls)
     davcio       :    167.27s CPU    198.20s WALL ( 2778700 calls)

     Parallel routines

     PHONON       :      4h48m CPU      5h18m WALL

     INITIALIZATION: 
     phq_setup    :      0.89s CPU      0.94s WALL (      43 calls)
     phq_init     :     11.05s CPU     12.48s WALL (      43 calls)

     phq_init     :     11.05s CPU     12.48s WALL (      43 calls)
     init_vloc    :      1.03s CPU      1.07s WALL (      43 calls)
     init_us_1    :      0.45s CPU      0.46s WALL (      43 calls)
     init_us_2    :     28.70s CPU     32.63s WALL (  673586 calls)

     DYNAMICAL MATRIX:
     dynmat0      :      5.35s CPU      6.15s WALL (      43 calls)
     phqscf       :  15468.70s CPU  17128.74s WALL (      43 calls)
     dynmatrix    :      0.05s CPU      0.12s WALL (      43 calls)

     phqscf       :  15468.70s CPU  17128.74s WALL (      43 calls)
     solve_linter :  15443.42s CPU  17099.93s WALL (     516 calls)
     drhodv       :     24.80s CPU     27.91s WALL (     516 calls)

     dynmat0      :      5.35s CPU      6.15s WALL (      43 calls)
     dynmat_us    :      4.93s CPU      5.71s WALL (      43 calls)
     d2ionq       :      0.40s CPU      0.42s WALL (      43 calls)

     dynmat_us    :      4.93s CPU      5.71s WALL (      43 calls)

     phqscf       :  15468.70s CPU  17128.74s WALL (      43 calls)
     solve_linter :  15443.42s CPU  17099.93s WALL (     516 calls)

     solve_linter :  15443.42s CPU  17099.93s WALL (     516 calls)
     dvqpsi_us    :    355.09s CPU    398.39s WALL (   67596 calls)
     sth_kernel   :  15070.86s CPU  16678.36s WALL (    3948 calls)
     apply_dpot_b :    920.12s CPU   1060.22s WALL (  449943 calls)
     ortho        :     63.63s CPU     72.50s WALL (  517281 calls)
     cgsolve      :  12765.82s CPU  14058.36s WALL (  517281 calls)
     incdrhoscf   :   1086.28s CPU   1214.60s WALL (  517152 calls)
     dv_of_drho   :     23.56s CPU     25.65s WALL (    3964 calls)
     mix_pot      :      7.68s CPU     10.40s WALL (    3948 calls)
     psymdvscf    :      7.28s CPU      7.72s WALL (     684 calls)

     dvqpsi_us    :    355.09s CPU    398.39s WALL (   67596 calls)
     dvqpsi_us_on :      4.27s CPU      4.73s WALL (   67596 calls)

     cgsolve      :  12765.82s CPU  14058.36s WALL (  517281 calls)
     ch_psi       :  12307.29s CPU  13554.13s WALL ( 6259363 calls)

     ch_psi       :  12307.29s CPU  13554.13s WALL ( 6259363 calls)
     h_psi        :  12513.02s CPU  13756.44s WALL ( 6661394 calls)
     last         :    791.50s CPU    867.33s WALL ( 6259363 calls)

     h_psi        :  12513.02s CPU  13756.44s WALL ( 6661394 calls)
     add_vuspsi   :     89.12s CPU     98.53s WALL ( 6661394 calls)

     incdrhoscf   :   1086.28s CPU   1214.60s WALL (  517152 calls)


      General routines
     calbec       :    486.47s CPU    532.92s WALL (13245106 calls)
     fft          :     17.43s CPU     18.93s WALL (   44206 calls)
     ffts         :     25.24s CPU     28.50s WALL (   73788 calls)
     fftw         :  13481.15s CPU  14893.45s WALL (72588564 calls)
     davcio       :    167.27s CPU    198.20s WALL ( 2778700 calls)
     write_rec    :      1.68s CPU      2.85s WALL (    4464 calls)


     PHONON       :      4h48m CPU      5h18m WALL


   This run was terminated on:   6:56:28  26Mar2023            

=------------------------------------------------------------------------------=
   JOB DONE.
=------------------------------------------------------------------------------=
