
     Program PWSCF v.7.0 starts on 26Mar2023 at  1:35:55 

     This program is part of the open-source Quantum ESPRESSO suite
     for quantum simulation of materials; please cite
         "P. Giannozzi et al., J. Phys.:Condens. Matter 21 395502 (2009);
         "P. Giannozzi et al., J. Phys.:Condens. Matter 29 465901 (2017);
         "P. Giannozzi et al., J. Chem. Phys. 152 154105 (2020);
          URL http://www.quantum-espresso.org", 
     in publications or presentations arising from this work. More details at
     http://www.quantum-espresso.org/quote

     Parallel version (MPI), running on     8 processors

     MPI processes distributed on     1 nodes
     R & G space division:  proc/nbgrp/npool/nimage =       8
     5100 MiB available memory on the printing compute node when the environment starts

     Waiting for input...
     Reading input from standard input

     Current dimensions of program PWSCF are:
     Max number of different atomic species (ntypx) = 10
     Max number of k-points (npk) =  40000
     Max angular momentum in pseudopotentials (lmaxx) =  4

     Subspace diagonalization in iterative solution of the eigenvalue problem:
     a serial algorithm will be used


     Parallelization info
     --------------------
     sticks:   dense  smooth     PW     G-vecs:    dense   smooth      PW
     Min          47      47     15                 5907     5907    1023
     Max          48      48     16                 5932     5932    1044
     Sum         379     379    121                47317    47317    8263

     Using Slab Decomposition



     bravais-lattice index     =           12
     lattice parameter (alat)  =       4.7961  a.u.
     unit-cell volume          =     752.9055 (a.u.)^3
     number of atoms/cell      =            4
     number of atomic types    =            2
     number of electrons       =        10.00
     number of Kohn-Sham states=           12
     kinetic-energy cutoff     =      60.0000  Ry
     charge density cutoff     =     240.0000  Ry
     scf convergence threshold =      1.0E-12
     mixing beta               =       0.7000
     number of iterations used =            8  plain     mixing
     Exchange-correlation= SLA-PW-PBX-PBC
                           (   1   4   3   4   0   0   0)

     celldm(1)=   4.796125  celldm(2)=   1.000000  celldm(3)=   7.880221
     celldm(4)=  -0.500000  celldm(5)=   0.000000  celldm(6)=   0.000000

     crystal axes: (cart. coord. in units of alat)
               a(1) = (   1.000000   0.000000   0.000000 )  
               a(2) = (  -0.500000   0.866025   0.000000 )  
               a(3) = (   0.000000   0.000000   7.880221 )  

     reciprocal axes: (cart. coord. in units 2 pi/alat)
               b(1) = (  1.000000  0.577350 -0.000000 )  
               b(2) = (  0.000000  1.154701  0.000000 )  
               b(3) = (  0.000000 -0.000000  0.126900 )  


     PseudoPot. # 1 for C  read from file:
     ./C.pbe-hgh.UPF
     MD5 check sum: ca26ff84b356733038fc2f5c468d1892
     Pseudo is Norm-conserving, Zval =  4.0
     Generated in analytical, separable form
     Using radial grid of 1073 points,  1 beta functions with: 
                l(1) =   0

     PseudoPot. # 2 for H  read from file:
     ./H.pbe-hgh.UPF
     MD5 check sum: 50ae4f52d34cf16cdfed4bce9c5a191e
     Pseudo is Norm-conserving, Zval =  1.0
     Generated in analytical, separable form
     Using radial grid of  929 points,  0 beta functions with: 

     atomic species   valence    mass     pseudopotential
        C              4.00    12.01100     C ( 1.00)
        H              1.00     1.00790     H ( 1.00)

      2 Sym. Ops. (no inversion) found



   Cartesian axes

     site n.     atom                  positions (alat units)
         1           C   tau(   1) = (  -0.0000001   0.5774215   3.9401877  )
         2           C   tau(   2) = (   0.5000001   0.2887421   4.1212739  )
         3           H   tau(   3) = (  -0.0000001   0.5774352   3.5021743  )
         4           H   tau(   4) = (   0.5000001   0.2887283   4.5592956  )

     number of k points=    43
                       cart. coord. in units 2pi/alat
        k(    1) = (   0.0000000   0.0000000   0.0000000), wk =   0.0138889
        k(    2) = (   0.0000000   0.0962250   0.0000000), wk =   0.0277778
        k(    3) = (   0.0000000   0.1924501   0.0000000), wk =   0.0277778
        k(    4) = (   0.0000000   0.2886751   0.0000000), wk =   0.0277778
        k(    5) = (   0.0000000   0.3849002   0.0000000), wk =   0.0277778
        k(    6) = (   0.0000000   0.4811252   0.0000000), wk =   0.0277778
        k(    7) = (   0.0000000  -0.5773503   0.0000000), wk =   0.0138889
        k(    8) = (   0.0833333   0.1443376   0.0000000), wk =   0.0555556
        k(    9) = (   0.0833333   0.2405626   0.0000000), wk =   0.0555556
        k(   10) = (   0.0833333   0.3367877   0.0000000), wk =   0.0555556
        k(   11) = (   0.0833333   0.4330127   0.0000000), wk =   0.0555556
        k(   12) = (   0.0833333   0.5292377   0.0000000), wk =   0.0555556
        k(   13) = (   0.1666667   0.2886751   0.0000000), wk =   0.0555556
        k(   14) = (   0.1666667   0.3849002   0.0000000), wk =   0.0555556
        k(   15) = (   0.1666667   0.4811252   0.0000000), wk =   0.0555556
        k(   16) = (   0.1666667   0.5773503   0.0000000), wk =   0.0277778
        k(   17) = (   0.2500000   0.4330127   0.0000000), wk =   0.0555556
        k(   18) = (   0.2500000   0.5292377   0.0000000), wk =   0.0555556
        k(   19) = (   0.3333333   0.5773503   0.0000000), wk =   0.0277778
        k(   20) = (  -0.0833333   0.0481125   0.0000000), wk =   0.0555556
        k(   21) = (  -0.1666667   0.0962250   0.0000000), wk =   0.0555556
        k(   22) = (  -0.2500000   0.1443376   0.0000000), wk =   0.0555556
        k(   23) = (  -0.3333333   0.1924501   0.0000000), wk =   0.0555556
        k(   24) = (  -0.4166667   0.2405626   0.0000000), wk =   0.0555556
        k(   25) = (   0.5000000  -0.2886751   0.0000000), wk =   0.0277778
        k(   26) = (   0.1666667  -0.0000000   0.0000000), wk =   0.0277778
        k(   27) = (  -0.1666667   0.1924501   0.0000000), wk =   0.0555556
        k(   28) = (   0.2500000   0.0481125   0.0000000), wk =   0.0555556
        k(   29) = (  -0.2500000   0.2405626   0.0000000), wk =   0.0555556
        k(   30) = (   0.3333333   0.0962250   0.0000000), wk =   0.0555556
        k(   31) = (  -0.3333333   0.2886751   0.0000000), wk =   0.0555556
        k(   32) = (   0.4166667   0.1443376   0.0000000), wk =   0.0555556
        k(   33) = (  -0.4166667   0.3367877   0.0000000), wk =   0.0555556
        k(   34) = (   0.5000000   0.1924501   0.0000000), wk =   0.0555556
        k(   35) = (   0.3333333  -0.0000000   0.0000000), wk =   0.0277778
        k(   36) = (  -0.2500000   0.3367877   0.0000000), wk =   0.0555556
        k(   37) = (   0.4166667   0.0481125   0.0000000), wk =   0.0555556
        k(   38) = (  -0.3333333   0.3849002   0.0000000), wk =   0.0555556
        k(   39) = (   0.5000000   0.0962250   0.0000000), wk =   0.0555556
        k(   40) = (  -0.4166667   0.4330127   0.0000000), wk =   0.0555556
        k(   41) = (   0.5000000   0.0000000   0.0000000), wk =   0.0277778
        k(   42) = (  -0.3333333   0.4811252   0.0000000), wk =   0.0555556
        k(   43) = (   0.5833333   0.0481125   0.0000000), wk =   0.0555556

     Dense  grid:    47317 G-vectors     FFT dimensions: (  24,  24, 192)

     Estimated max dynamical RAM per process >      10.15 MB

     Estimated total dynamical RAM >      81.21 MB

     Initial potential from superposition of free atoms

     starting charge       9.9999, renormalised to      10.0000

     negative rho (up, down):  3.395E-04 0.000E+00
     Starting wfcs are   10 randomized atomic wfcs +    2 random wfcs

     total cpu time spent up to now is        0.5 secs

     Self-consistent Calculation

     iteration #  1     ecut=    60.00 Ry     beta= 0.70
     Davidson diagonalization with overlap
     ethr =  1.00E-02,  avg # of iterations =  8.6

     negative rho (up, down):  9.405E-05 0.000E+00

     total cpu time spent up to now is        2.2 secs

     total energy              =     -24.99029949 Ry
     estimated scf accuracy    <       0.36029264 Ry

     iteration #  2     ecut=    60.00 Ry     beta= 0.70
     Davidson diagonalization with overlap
     ethr =  3.60E-03,  avg # of iterations =  5.7

     negative rho (up, down):  3.736E-05 0.000E+00

     total cpu time spent up to now is        3.4 secs

     total energy              =     -25.05564443 Ry
     estimated scf accuracy    <       0.07875076 Ry

     iteration #  3     ecut=    60.00 Ry     beta= 0.70
     Davidson diagonalization with overlap
     ethr =  7.88E-04,  avg # of iterations =  3.8

     negative rho (up, down):  9.079E-07 0.000E+00

     total cpu time spent up to now is        4.5 secs

     total energy              =     -25.07426203 Ry
     estimated scf accuracy    <       0.00302499 Ry

     iteration #  4     ecut=    60.00 Ry     beta= 0.70
     Davidson diagonalization with overlap
     ethr =  3.02E-05,  avg # of iterations =  6.9

     total cpu time spent up to now is        6.1 secs

     total energy              =     -25.07473448 Ry
     estimated scf accuracy    <       0.00002337 Ry

     iteration #  5     ecut=    60.00 Ry     beta= 0.70
     Davidson diagonalization with overlap
     c_bands:  1 eigenvalues not converged
     ethr =  2.34E-07,  avg # of iterations =  5.8

     total cpu time spent up to now is        7.7 secs

     total energy              =     -25.07474232 Ry
     estimated scf accuracy    <       0.00000079 Ry

     iteration #  6     ecut=    60.00 Ry     beta= 0.70
     Davidson diagonalization with overlap
     ethr =  7.88E-09,  avg # of iterations =  2.7

     total cpu time spent up to now is        8.9 secs

     total energy              =     -25.07474253 Ry
     estimated scf accuracy    <       0.00000003 Ry

     iteration #  7     ecut=    60.00 Ry     beta= 0.70
     Davidson diagonalization with overlap
     ethr =  2.61E-10,  avg # of iterations =  2.9

     total cpu time spent up to now is       10.1 secs

     total energy              =     -25.07474254 Ry
     estimated scf accuracy    <       0.00000002 Ry

     iteration #  8     ecut=    60.00 Ry     beta= 0.70
     Davidson diagonalization with overlap
     ethr =  2.23E-10,  avg # of iterations =  1.8

     total cpu time spent up to now is       11.3 secs

     total energy              =     -25.07474254 Ry
     estimated scf accuracy    <          4.8E-10 Ry

     iteration #  9     ecut=    60.00 Ry     beta= 0.70
     Davidson diagonalization with overlap
     ethr =  4.84E-12,  avg # of iterations =  2.8

     total cpu time spent up to now is       12.4 secs

     total energy              =     -25.07474254 Ry
     estimated scf accuracy    <          6.4E-11 Ry

     iteration # 10     ecut=    60.00 Ry     beta= 0.70
     Davidson diagonalization with overlap
     ethr =  6.44E-13,  avg # of iterations =  1.9

     total cpu time spent up to now is       13.2 secs

     total energy              =     -25.07474254 Ry
     estimated scf accuracy    <          2.4E-11 Ry

     iteration # 11     ecut=    60.00 Ry     beta= 0.70
     Davidson diagonalization with overlap
     ethr =  2.44E-13,  avg # of iterations =  2.1

     total cpu time spent up to now is       14.2 secs

     End of self-consistent calculation

          k = 0.0000 0.0000 0.0000 (  5847 PWs)   bands (ev):

   -20.2450 -12.4659  -5.6120  -2.7255  -2.7253   0.6888   1.5851   2.2746
     2.6150   4.0644   4.4898   6.2436

          k = 0.0000 0.0962 0.0000 (  5851 PWs)   bands (ev):

   -20.0815 -12.3189  -5.5417  -3.5014  -3.0484   0.8982   1.7636   2.4628
     2.8304   4.2022   4.7088   6.0967

          k = 0.0000 0.1925 0.0000 (  5858 PWs)   bands (ev):

   -19.5960 -11.8905  -5.5014  -5.1805  -3.7958   1.5155   2.2521   3.0253
     3.4703   4.5668   5.3256   5.9505

          k = 0.0000 0.2887 0.0000 (  5892 PWs)   bands (ev):

   -18.7943 -11.2602  -7.5033  -5.1687  -4.6189   2.5229   2.8462   3.9776
     4.5265   5.0781   6.0042   6.4823

          k = 0.0000 0.3849 0.0000 (  5910 PWs)   bands (ev):

   -17.6948 -10.9523  -9.1577  -5.3040  -5.2406   3.3314   3.9340   5.3052
     5.6486   6.0313   6.6796   7.8795

          k = 0.0000 0.4811 0.0000 (  5912 PWs)   bands (ev):

   -16.3624 -12.3548  -8.8847  -5.7439  -5.6305   4.0566   5.2924   5.9174
     7.1440   7.4603   7.9013   8.3982

          k = 0.0000-0.5774 0.0000 (  5940 PWs)   bands (ev):

   -15.3516 -13.5506  -8.4638  -5.9453  -5.8950   4.8592   5.2445   6.2334
     7.7963   7.9158   9.5890   9.6819

          k = 0.0833 0.1443 0.0000 (  5842 PWs)   bands (ev):

   -19.7569 -12.0300  -5.4241  -4.6744  -3.6974   1.3114   2.1017   2.8398
     3.2582   4.4716   5.1355   6.2635

          k = 0.0833 0.2406 0.0000 (  5880 PWs)   bands (ev):

   -19.1132 -11.4934  -6.5110  -5.3077  -4.5948   2.1259   2.6684   3.6022
     4.1084   4.9845   5.9510   6.4635

          k = 0.0833 0.3368 0.0000 (  5902 PWs)   bands (ev):

   -18.1610 -10.8995  -8.4495  -5.6734  -5.0265   3.1992   3.3663   4.7885
     5.3715   5.7615   6.6168   7.2743

          k = 0.0833 0.4330 0.0000 (  5902 PWs)   bands (ev):

   -16.9338 -11.4657  -9.0805  -6.2013  -5.3444   3.8347   4.9020   6.1433
     6.5293   7.0520   7.4937   8.2358

          k = 0.0833 0.5292 0.0000 (  5919 PWs)   bands (ev):

   -15.5900 -13.0744  -8.5206  -6.4342  -5.8462   4.6981   6.0380   6.6688
     6.9118   8.5663   8.7890   9.1730

          k = 0.1667 0.2887 0.0000 (  5908 PWs)   bands (ev):

   -18.3182 -10.9450  -7.7955  -6.2157  -4.9908   3.1284   3.2340   4.6040
     5.1674   5.8092   7.0000   7.6404

          k = 0.1667 0.3849 0.0000 (  5934 PWs)   bands (ev):

   -17.2315 -10.8456  -8.8040  -7.2026  -5.1898   3.8944   4.4889   6.0480
     6.6255   6.9575   7.4224   8.3406

          k = 0.1667 0.4811 0.0000 (  5939 PWs)   bands (ev):

   -15.9150 -12.1433  -8.6224  -7.5710  -5.6643   4.7117   6.0587   6.8546
     7.9765   8.2132   8.5223   8.9512

          k = 0.1667 0.5774 0.0000 (  5938 PWs)   bands (ev):

   -14.9051 -13.2775  -8.5000  -7.3972  -6.0600   5.2222   6.7472   7.2884
     7.8192   8.5611   9.7340  10.3068

          k = 0.2500 0.4330 0.0000 (  5918 PWs)   bands (ev):

   -16.0400 -11.5774  -8.6392  -8.2723  -5.5760   4.8993   5.6329   6.8025
     7.7482   8.2801   8.6995   9.5599

          k = 0.2500 0.5292 0.0000 (  5945 PWs)   bands (ev):

   -14.7271 -12.7814  -9.3841  -7.5057  -6.1509   5.4232   6.3717   7.5528
     8.8943   9.8310   9.9778  10.5632

          k = 0.3333 0.5774 0.0000 (  5928 PWs)   bands (ev):

   -13.5904 -13.5903 -10.0085  -6.7891  -6.7879   5.2932   7.3942   7.3946
     9.5297  10.1589  10.1591  11.8521

          k =-0.0833 0.0481 0.0000 (  5851 PWs)   bands (ev):

   -20.0815 -12.3189  -5.5417  -3.5012  -3.0486   0.8982   1.7636   2.4628
     2.8304   4.2022   4.7088   6.0964

          k =-0.1667 0.0962 0.0000 (  5858 PWs)   bands (ev):

   -19.5960 -11.8905  -5.5014  -5.1803  -3.7960   1.5155   2.2521   3.0253
     3.4703   4.5667   5.3255   5.9504

          k =-0.2500 0.1443 0.0000 (  5892 PWs)   bands (ev):

   -18.7943 -11.2602  -7.5032  -5.1686  -4.6190   2.5229   2.8462   3.9776
     4.5265   5.0780   6.0042   6.4823

          k =-0.3333 0.1925 0.0000 (  5910 PWs)   bands (ev):

   -17.6948 -10.9522  -9.1577  -5.3041  -5.2405   3.3314   3.9340   5.3051
     5.6486   6.0313   6.6797   7.8795

          k =-0.4167 0.2406 0.0000 (  5912 PWs)   bands (ev):

   -16.3624 -12.3546  -8.8849  -5.7440  -5.6303   4.0565   5.2923   5.9174
     7.1439   7.4603   7.9013   8.3983

          k = 0.5000-0.2887 0.0000 (  5940 PWs)   bands (ev):

   -15.3517 -13.5504  -8.4640  -5.9450  -5.8951   4.8589   5.2444   6.2337
     7.7962   7.9159   9.5890   9.6819

          k = 0.1667-0.0000 0.0000 (  5842 PWs)   bands (ev):

   -19.7569 -12.0300  -5.4242  -4.6743  -3.6975   1.3114   2.1017   2.8398
     3.2582   4.4716   5.1355   6.2633

          k =-0.1667 0.1925 0.0000 (  5880 PWs)   bands (ev):

   -19.1132 -11.4934  -6.5110  -5.3077  -4.5949   2.1259   2.6684   3.6022
     4.1084   4.9845   5.9510   6.4634

          k = 0.2500 0.0481 0.0000 (  5880 PWs)   bands (ev):

   -19.1132 -11.4934  -6.5109  -5.3077  -4.5949   2.1259   2.6684   3.6022
     4.1084   4.9844   5.9510   6.4634

          k =-0.2500 0.2406 0.0000 (  5902 PWs)   bands (ev):

   -18.1610 -10.8995  -8.4495  -5.6734  -5.0265   3.1993   3.3663   4.7885
     5.3715   5.7614   6.6167   7.2743

          k = 0.3333 0.0962 0.0000 (  5902 PWs)   bands (ev):

   -18.1610 -10.8995  -8.4495  -5.6735  -5.0264   3.1992   3.3663   4.7885
     5.3715   5.7614   6.6168   7.2743

          k =-0.3333 0.2887 0.0000 (  5902 PWs)   bands (ev):

   -16.9338 -11.4656  -9.0806  -6.2013  -5.3443   3.8346   4.9020   6.1432
     6.5293   7.0520   7.4937   8.2359

          k = 0.4167 0.1443 0.0000 (  5902 PWs)   bands (ev):

   -16.9338 -11.4655  -9.0807  -6.2014  -5.3443   3.8346   4.9020   6.1433
     6.5293   7.0520   7.4937   8.2357

          k =-0.4167 0.3368 0.0000 (  5919 PWs)   bands (ev):

   -15.5901 -13.0743  -8.5208  -6.4342  -5.8460   4.6978   6.0379   6.6690
     6.9117   8.5663   8.7890   9.1729

          k = 0.5000 0.1925 0.0000 (  5919 PWs)   bands (ev):

   -15.5901 -13.0743  -8.5208  -6.4343  -5.8459   4.6978   6.0379   6.6689
     6.9118   8.5663   8.7890   9.1729

          k = 0.3333-0.0000 0.0000 (  5908 PWs)   bands (ev):

   -18.3182 -10.9450  -7.7954  -6.2159  -4.9907   3.1284   3.2340   4.6040
     5.1674   5.8092   7.0001   7.6542

          k =-0.2500 0.3368 0.0000 (  5934 PWs)   bands (ev):

   -17.2315 -10.8456  -8.8041  -7.2026  -5.1898   3.8944   4.4889   6.0480
     6.6255   6.9573   7.4225   8.3404

          k = 0.4167 0.0481 0.0000 (  5934 PWs)   bands (ev):

   -17.2315 -10.8455  -8.8041  -7.2028  -5.1897   3.8944   4.4889   6.0480
     6.6255   6.9574   7.4224   8.3404

          k =-0.3333 0.3849 0.0000 (  5939 PWs)   bands (ev):

   -15.9150 -12.1432  -8.6226  -7.5710  -5.6642   4.7115   6.0587   6.8546
     7.9765   8.2132   8.5224   8.9513

          k = 0.5000 0.0962 0.0000 (  5939 PWs)   bands (ev):

   -15.9150 -12.1432  -8.6226  -7.5710  -5.6641   4.7115   6.0587   6.8545
     7.9765   8.2131   8.5224   8.9513

          k =-0.4167 0.4330 0.0000 (  5938 PWs)   bands (ev):

   -14.9052 -13.2773  -8.5002  -7.3973  -6.0597   5.2218   6.7475   7.2885
     7.8190   8.5611   9.7341  10.3067

          k = 0.5000 0.0000 0.0000 (  5918 PWs)   bands (ev):

   -16.0400 -11.5772  -8.6393  -8.2724  -5.5759   4.8993   5.6329   6.8023
     7.7482   8.2801   8.6995   9.5600

          k =-0.3333 0.4811 0.0000 (  5945 PWs)   bands (ev):

   -14.7271 -12.7813  -9.3842  -7.5058  -6.1508   5.4229   6.3718   7.5528
     8.8943   9.8310   9.9777  10.5632

          k = 0.5833 0.0481 0.0000 (  5945 PWs)   bands (ev):

   -14.7272 -12.7812  -9.3842  -7.5059  -6.1507   5.4229   6.3717   7.5529
     8.8943   9.8310   9.9777  10.5632

     highest occupied, lowest unoccupied level (ev):    -2.7253    0.6888

!    total energy              =     -25.07474254 Ry
     estimated scf accuracy    <          1.9E-13 Ry

     The total energy is the sum of the following terms:
     one-electron contribution =    -298.09638055 Ry
     hartree contribution      =     151.00662231 Ry
     xc contribution           =      -8.49956239 Ry
     ewald contribution        =     130.51457808 Ry

     convergence has been achieved in  11 iterations

     Writing all to output data dir ./C2H2.save/

     init_run     :      0.41s CPU      0.43s WALL (       1 calls)
     electrons    :     12.15s CPU     13.79s WALL (       1 calls)

     Called by init_run:
     wfcinit      :      0.28s CPU      0.29s WALL (       1 calls)
     potinit      :      0.07s CPU      0.07s WALL (       1 calls)
     hinit0       :      0.03s CPU      0.03s WALL (       1 calls)

     Called by electrons:
     c_bands      :     10.76s CPU     12.18s WALL (      11 calls)
     sum_band     :      1.26s CPU      1.44s WALL (      11 calls)
     v_of_rho     :      0.11s CPU      0.12s WALL (      12 calls)
     mix_rho      :      0.03s CPU      0.03s WALL (      11 calls)

     Called by c_bands:
     init_us_2    :      0.04s CPU      0.04s WALL (     989 calls)
     init_us_2:cp :      0.03s CPU      0.04s WALL (     989 calls)
     cegterg      :     10.62s CPU     12.01s WALL (     473 calls)

     Called by *egterg:
     cdiaghg      :      0.43s CPU      0.47s WALL (    2403 calls)
     h_psi        :      7.70s CPU      8.76s WALL (    2446 calls)
     g_psi        :      0.03s CPU      0.04s WALL (    1930 calls)

     Called by h_psi:
     h_psi:calbec :      0.19s CPU      0.21s WALL (    2446 calls)
     vloc_psi     :      7.42s CPU      8.44s WALL (    2446 calls)
     add_vuspsi   :      0.05s CPU      0.06s WALL (    2446 calls)

     General routines
     calbec       :      0.18s CPU      0.21s WALL (    2446 calls)
     fft          :      0.08s CPU      0.09s WALL (     119 calls)
     ffts         :      0.00s CPU      0.00s WALL (      11 calls)
     fftw         :      8.15s CPU      9.29s WALL (   38040 calls)

     Parallel routines

     PWSCF        :     12.72s CPU     14.44s WALL


   This run was terminated on:   1:36: 9  26Mar2023            

=------------------------------------------------------------------------------=
   JOB DONE.
=------------------------------------------------------------------------------=
