
     Program PWSCF v.7.0 starts on 26Mar2023 at  9:49:37 

     This program is part of the open-source Quantum ESPRESSO suite
     for quantum simulation of materials; please cite
         "P. Giannozzi et al., J. Phys.:Condens. Matter 21 395502 (2009);
         "P. Giannozzi et al., J. Phys.:Condens. Matter 29 465901 (2017);
         "P. Giannozzi et al., J. Chem. Phys. 152 154105 (2020);
          URL http://www.quantum-espresso.org", 
     in publications or presentations arising from this work. More details at
     http://www.quantum-espresso.org/quote

     Parallel version (MPI), running on     8 processors

     MPI processes distributed on     1 nodes
     R & G space division:  proc/nbgrp/npool/nimage =       8
     353 MiB available memory on the printing compute node when the environment starts

     Waiting for input...
     Reading input from standard input

     Current dimensions of program PWSCF are:
     Max number of different atomic species (ntypx) = 10
     Max number of k-points (npk) =  40000
     Max angular momentum in pseudopotentials (lmaxx) =  4

     Atomic positions and unit cell read from directory:
     ./C2H2.save/
     Atomic positions from file used, from input discarded


     Subspace diagonalization in iterative solution of the eigenvalue problem:
     a serial algorithm will be used


     Parallelization info
     --------------------
     sticks:   dense  smooth     PW     G-vecs:    dense   smooth      PW
     Min          47      47     20                 5909     5909    1662
     Max          48      48     21                 5930     5930    1687
     Sum         379     379    163                47317    47317   13365

     Using Slab Decomposition



     bravais-lattice index     =           12
     lattice parameter (alat)  =       4.7961  a.u.
     unit-cell volume          =     752.9055 (a.u.)^3
     number of atoms/cell      =            4
     number of atomic types    =            2
     number of electrons       =        10.00
     number of Kohn-Sham states=           12
     kinetic-energy cutoff     =      60.0000  Ry
     charge density cutoff     =     240.0000  Ry
     Exchange-correlation= SLA-PW-PBX-PBC
                           (   1   4   3   4   0   0   0)

     celldm(1)=   4.796125  celldm(2)=   1.000000  celldm(3)=   7.880221
     celldm(4)=  -0.500000  celldm(5)=   0.000000  celldm(6)=   0.000000

     crystal axes: (cart. coord. in units of alat)
               a(1) = (   1.000000   0.000000   0.000000 )  
               a(2) = (  -0.500000   0.866025   0.000000 )  
               a(3) = (   0.000000   0.000000   7.880221 )  

     reciprocal axes: (cart. coord. in units 2 pi/alat)
               b(1) = (  1.000000  0.577350 -0.000000 )  
               b(2) = (  0.000000  1.154701  0.000000 )  
               b(3) = (  0.000000 -0.000000  0.126900 )  


     PseudoPot. # 1 for C  read from file:
     ./C.pbe-hgh.UPF
     MD5 check sum: ca26ff84b356733038fc2f5c468d1892
     Pseudo is Norm-conserving, Zval =  4.0
     Generated in analytical, separable form
     Using radial grid of 1073 points,  1 beta functions with: 
                l(1) =   0

     PseudoPot. # 2 for H  read from file:
     ./H.pbe-hgh.UPF
     MD5 check sum: 50ae4f52d34cf16cdfed4bce9c5a191e
     Pseudo is Norm-conserving, Zval =  1.0
     Generated in analytical, separable form
     Using radial grid of  929 points,  0 beta functions with: 

     atomic species   valence    mass     pseudopotential
        C              4.00    12.01100     C ( 1.00)
        H              1.00     1.00790     H ( 1.00)

      2 Sym. Ops. (no inversion) found



   Cartesian axes

     site n.     atom                  positions (alat units)
         1           C   tau(   1) = (  -0.0000001   0.5774215   3.9401877  )
         2           C   tau(   2) = (   0.5000001   0.2887421   4.1212739  )
         3           H   tau(   3) = (  -0.0000001   0.5774352   3.5021743  )
         4           H   tau(   4) = (   0.5000001   0.2887283   4.5592956  )

     number of k points=   144

     Number of k-points >= 100: set verbosity='high' to print them.

     Dense  grid:    47317 G-vectors     FFT dimensions: (  24,  24, 192)

     Estimated max dynamical RAM per process >       2.70 MB

     Estimated total dynamical RAM >      21.57 MB

     The potential is recalculated from file :
     ./C2H2.save/charge-density

     Starting wfcs are   10 randomized atomic wfcs +    2 random wfcs

     Band Structure Calculation
     Davidson diagonalization with overlap
     c_bands:  1 eigenvalues not converged
     c_bands:  1 eigenvalues not converged
     c_bands:  1 eigenvalues not converged
     c_bands:  1 eigenvalues not converged
     c_bands:  1 eigenvalues not converged
     c_bands:  1 eigenvalues not converged
     c_bands:  1 eigenvalues not converged
     c_bands:  1 eigenvalues not converged
     c_bands:  1 eigenvalues not converged
     c_bands:  1 eigenvalues not converged
     c_bands:  1 eigenvalues not converged
     c_bands:  1 eigenvalues not converged
     c_bands:  1 eigenvalues not converged

     ethr =  1.00E-13,  avg # of iterations = 87.0

     total cpu time spent up to now is       60.4 secs

     End of band structure calculation

     Number of k-points >= 100: set verbosity='high' to print the bands.

     Writing all to output data dir ./C2H2.save/

     init_run     :      0.07s CPU      0.10s WALL (       1 calls)
     electrons    :     56.20s CPU     60.10s WALL (       1 calls)

     Called by init_run:
     wfcinit      :      0.00s CPU      0.00s WALL (       1 calls)
     potinit      :      0.01s CPU      0.02s WALL (       1 calls)
     hinit0       :      0.04s CPU      0.05s WALL (       1 calls)

     Called by electrons:
     c_bands      :     56.20s CPU     60.10s WALL (       1 calls)
     v_of_rho     :      0.01s CPU      0.01s WALL (       1 calls)

     Called by c_bands:
     init_us_2    :      0.01s CPU      0.01s WALL (     144 calls)
     init_us_2:cp :      0.01s CPU      0.01s WALL (     144 calls)
     cegterg      :     55.25s CPU     59.00s WALL (     678 calls)

     Called by *egterg:
     cdiaghg      :      2.31s CPU      2.48s WALL (   12665 calls)
     h_psi        :     36.94s CPU     39.59s WALL (   13343 calls)
     g_psi        :      0.21s CPU      0.23s WALL (   12521 calls)

     Called by h_psi:
     h_psi:calbec :      0.72s CPU      0.77s WALL (   13343 calls)
     vloc_psi     :     35.86s CPU     38.42s WALL (   13343 calls)
     add_vuspsi   :      0.22s CPU      0.24s WALL (   13343 calls)

     General routines
     calbec       :      0.70s CPU      0.75s WALL (   13343 calls)
     fft          :      0.01s CPU      0.01s WALL (      10 calls)
     fftw         :     34.06s CPU     36.52s WALL (  167516 calls)
     davcio       :      0.03s CPU      0.06s WALL (     288 calls)

     Parallel routines

     PWSCF        :     56.64s CPU   1m 0.80s WALL


   This run was terminated on:   9:50:38  26Mar2023            

=------------------------------------------------------------------------------=
   JOB DONE.
=------------------------------------------------------------------------------=
