                                                                                      
                                       ``:oss/                                        
                           `.+s+.     .+ys--yh+     `./ss+.                           
                          -sh//yy+`   +yy   +yy    -+h+-oyy                           
                          -yh- .oyy/.-sh.   .syo-.:sy-  /yh                           
                 `.-.`    `yh+   -oyyyo.     `/syys:    oys      `.`                  
               `/+ssys+-` `sh+      `                   oys`   .:osyo`                
               -yh- ./syyooyo`                          .sys+/oyo--yh/                
               `yy+    .-:-.                             `-/+/:`  -sh-                
                /yh.                                              oys                 
          ``..---hho---------`   .---------..`      `.-----.`    -hd+---.             
       `./osmNMMMMMMMMMMMMMMMs. +NNMMMMMMMMNNmh+.   yNMMMMMNm-  oNMMMMMNmo++:`        
       +sy--/sdMMMhyyyyyyyNMMh- .oyNMMmyyyyyhNMMm+` -yMMMdyyo:` .oyyNMMNhs+syy`       
       -yy/   /MMM+.`-+/``mMMy-   `mMMh:`````.dMMN:` `MMMy-`-dhhy```mMMy:``+hs        
        -yy+` /MMMo:-mMM+`-oo/.    mMMh:     `dMMN/`  dMMm:`dMMMMy..MMMo-.+yo`        
         .sys`/MMMMNNMMMs-         mMMmyooooymMMNo:   oMMM/sMMMMMM++MMN//oh:          
          `sh+/MMMhyyMMMs- `-`     mMMMMMMMMMNmy+-`   -MMMhMMMsmMMmdMMd/yy+           
    `-/+++oyy-/MMM+.`/hh/.`mNm:`   mMMd+/////:-.`      NMMMMMd/:NMMMMMy:/yyo/:.`      
   +os+//:-..-oMMMo:--:::-/MMMo. .-mMMd+---`           hMMMMN+. oMMMMMo. `-+osyso:`   
   syo     `mNMMMMMNNNNNNNNMMMo.oNNMMMMMNNNN:`         +MMMMs:`  dMMMN/`     ``:syo   
   /yh`     :syyyyyyyyyyyyyyyy+.`+syyyyyyyyo:`         .oyys:`   .oyys:`        +yh   
   -yh-        ````````````````    `````````              ``        ``          oys   
   -+h/------------------------::::::::://////++++++++++++++++++++++///////::::/yd:   
   shdddddddddddddddddddddddddddddhhhhhhhhyyyyyssssssssssssssssyyyyyyyhhhhhhhddddh`   
                                                                                      
  S. Ponce, E. R. Margine, C. Verdi, and F. Giustino,                                 
                                                Comput. Phys. Commun. 209, 116 (2016) 
                                                                                      

     Program EPW v.5.4.1 starts on 26Mar2023 at  9:55:29 

     This program is part of the open-source Quantum ESPRESSO suite
     for quantum simulation of materials; please cite
         "P. Giannozzi et al., J. Phys.:Condens. Matter 21 395502 (2009);
         "P. Giannozzi et al., J. Phys.:Condens. Matter 29 465901 (2017);
         "P. Giannozzi et al., J. Chem. Phys. 152 154105 (2020);
          URL http://www.quantum-espresso.org", 
     in publications or presentations arising from this work. More details at
     http://www.quantum-espresso.org/quote

     Parallel version (MPI), running on     8 processors

     MPI processes distributed on     1 nodes
     K-points division:     npool     =       8
     1492 MiB available memory on the printing compute node when the environment starts

     Waiting for input...
     Reading input from standard input

     Reading supplied temperature list.

     Reading xml data from directory:

     ./C2H2.save/

     IMPORTANT: XC functional enforced from input :
     Exchange-correlation= PBE
                           (   1   4   3   4   0   0   0)
     Any further DFT definition will be discarded
     Please, verify this is what you really want


     G-vector sticks info
     --------------------
     sticks:   dense  smooth     PW     G-vecs:    dense   smooth      PW
     Sum         379     379    163                47317    47317   13365

     Using Slab Decomposition

     Reading collected, re-writing distributed wavefunctions

     --                                                                         

     bravais-lattice index     =           12
     lattice parameter (a_0)   =       4.7961  a.u.
     unit-cell volume          =     752.9055 (a.u.)^3
     number of atoms/cell      =            4
     number of atomic types    =            2
     kinetic-energy cut-off    =      60.0000  Ry
     charge density cut-off    =     240.0000  Ry
     Exchange-correlation= PBE
                           (   1   4   3   4   0   0   0)


     celldm(1)=    4.79612  celldm(2)=    1.00000  celldm(3)=    7.88022
     celldm(4)=   -0.50000  celldm(5)=    0.00000  celldm(6)=    0.00000

     crystal axes: (cart. coord. in units of a_0)
               a(1) = (  1.0000  0.0000  0.0000 )  
               a(2) = ( -0.5000  0.8660  0.0000 )  
               a(3) = (  0.0000  0.0000  7.8802 )  

     reciprocal axes: (cart. coord. in units 2 pi/a_0)
               b(1) = (  1.0000  0.5774 -0.0000 )  
               b(2) = (  0.0000  1.1547  0.0000 )  
               b(3) = (  0.0000 -0.0000  0.1269 )  


     Atoms inside the unit cell: 

   Cartesian axes

     site n.  atom      mass           positions (a_0 units)
        1        C   12.0110   tau( 1) = (   -0.00000    0.57742    3.94019  )
        2        C   12.0110   tau( 2) = (    0.50000    0.28874    4.12127  )
        3        H    1.0079   tau( 3) = (   -0.00000    0.57744    3.50217  )
        4        H    1.0079   tau( 4) = (    0.50000    0.28873    4.55930  )

      3 Sym.Ops. (with q -> -q+G )


     G cutoff =  139.8403  (  47317 G-vectors)     FFT grid: ( 24, 24,192)
     number of k points=  144
                       cart. coord. in units 2pi/a_0
        k(    1) = (   0.0000000   0.0000000   0.0000000), wk =   0.0138889
        k(    2) = (   0.0000000   0.0962250   0.0000000), wk =   0.0138889
        k(    3) = (   0.0000000   0.1924501   0.0000000), wk =   0.0138889
        k(    4) = (   0.0000000   0.2886751   0.0000000), wk =   0.0138889
        k(    5) = (   0.0000000   0.3849002   0.0000000), wk =   0.0138889
        k(    6) = (   0.0000000   0.4811252   0.0000000), wk =   0.0138889
        k(    7) = (   0.0000000   0.5773503   0.0000000), wk =   0.0138889
        k(    8) = (   0.0000000   0.6735753   0.0000000), wk =   0.0138889
        k(    9) = (   0.0000000   0.7698004   0.0000000), wk =   0.0138889
        k(   10) = (   0.0000000   0.8660254   0.0000000), wk =   0.0138889
        k(   11) = (   0.0000000   0.9622504   0.0000000), wk =   0.0138889
        k(   12) = (   0.0000000   1.0584755   0.0000000), wk =   0.0138889
        k(   13) = (   0.0833333   0.0481125   0.0000000), wk =   0.0138889
        k(   14) = (   0.0833333   0.1443376   0.0000000), wk =   0.0138889
        k(   15) = (   0.0833333   0.2405626   0.0000000), wk =   0.0138889
        k(   16) = (   0.0833333   0.3367877   0.0000000), wk =   0.0138889
        k(   17) = (   0.0833333   0.4330127   0.0000000), wk =   0.0138889
        k(   18) = (   0.0833333   0.5292377   0.0000000), wk =   0.0138889
        k(   19) = (   0.0833333   0.6254628   0.0000000), wk =   0.0138889
        k(   20) = (   0.0833333   0.7216878   0.0000000), wk =   0.0138889
        k(   21) = (   0.0833333   0.8179129   0.0000000), wk =   0.0138889
        k(   22) = (   0.0833333   0.9141379   0.0000000), wk =   0.0138889
        k(   23) = (   0.0833333   1.0103630   0.0000000), wk =   0.0138889
        k(   24) = (   0.0833333   1.1065880   0.0000000), wk =   0.0138889
        k(   25) = (   0.1666667   0.0962250   0.0000000), wk =   0.0138889
        k(   26) = (   0.1666667   0.1924501   0.0000000), wk =   0.0138889
        k(   27) = (   0.1666667   0.2886751   0.0000000), wk =   0.0138889
        k(   28) = (   0.1666667   0.3849002   0.0000000), wk =   0.0138889
        k(   29) = (   0.1666667   0.4811252   0.0000000), wk =   0.0138889
        k(   30) = (   0.1666667   0.5773503   0.0000000), wk =   0.0138889
        k(   31) = (   0.1666667   0.6735753   0.0000000), wk =   0.0138889
        k(   32) = (   0.1666667   0.7698004   0.0000000), wk =   0.0138889
        k(   33) = (   0.1666667   0.8660254   0.0000000), wk =   0.0138889
        k(   34) = (   0.1666667   0.9622505   0.0000000), wk =   0.0138889
        k(   35) = (   0.1666667   1.0584755   0.0000000), wk =   0.0138889
        k(   36) = (   0.1666667   1.1547005   0.0000000), wk =   0.0138889
        k(   37) = (   0.2500000   0.1443376   0.0000000), wk =   0.0138889
        k(   38) = (   0.2500000   0.2405626   0.0000000), wk =   0.0138889
        k(   39) = (   0.2500000   0.3367877   0.0000000), wk =   0.0138889
        k(   40) = (   0.2500000   0.4330127   0.0000000), wk =   0.0138889
        k(   41) = (   0.2500000   0.5292377   0.0000000), wk =   0.0138889
        k(   42) = (   0.2500000   0.6254628   0.0000000), wk =   0.0138889
        k(   43) = (   0.2500000   0.7216878   0.0000000), wk =   0.0138889
        k(   44) = (   0.2500000   0.8179129   0.0000000), wk =   0.0138889
        k(   45) = (   0.2500000   0.9141379   0.0000000), wk =   0.0138889
        k(   46) = (   0.2500000   1.0103630   0.0000000), wk =   0.0138889
        k(   47) = (   0.2500000   1.1065880   0.0000000), wk =   0.0138889
        k(   48) = (   0.2500000   1.2028131   0.0000000), wk =   0.0138889
        k(   49) = (   0.3333333   0.1924501   0.0000000), wk =   0.0138889
        k(   50) = (   0.3333333   0.2886751   0.0000000), wk =   0.0138889
        k(   51) = (   0.3333333   0.3849002   0.0000000), wk =   0.0138889
        k(   52) = (   0.3333333   0.4811252   0.0000000), wk =   0.0138889
        k(   53) = (   0.3333333   0.5773503   0.0000000), wk =   0.0138889
        k(   54) = (   0.3333333   0.6735753   0.0000000), wk =   0.0138889
        k(   55) = (   0.3333333   0.7698004   0.0000000), wk =   0.0138889
        k(   56) = (   0.3333333   0.8660254   0.0000000), wk =   0.0138889
        k(   57) = (   0.3333333   0.9622505   0.0000000), wk =   0.0138889
        k(   58) = (   0.3333333   1.0584755   0.0000000), wk =   0.0138889
        k(   59) = (   0.3333333   1.1547005   0.0000000), wk =   0.0138889
        k(   60) = (   0.3333333   1.2509256   0.0000000), wk =   0.0138889
        k(   61) = (   0.4166667   0.2405626   0.0000000), wk =   0.0138889
        k(   62) = (   0.4166667   0.3367877   0.0000000), wk =   0.0138889
        k(   63) = (   0.4166667   0.4330127   0.0000000), wk =   0.0138889
        k(   64) = (   0.4166667   0.5292377   0.0000000), wk =   0.0138889
        k(   65) = (   0.4166667   0.6254628   0.0000000), wk =   0.0138889
        k(   66) = (   0.4166667   0.7216878   0.0000000), wk =   0.0138889
        k(   67) = (   0.4166667   0.8179129   0.0000000), wk =   0.0138889
        k(   68) = (   0.4166667   0.9141379   0.0000000), wk =   0.0138889
        k(   69) = (   0.4166667   1.0103630   0.0000000), wk =   0.0138889
        k(   70) = (   0.4166667   1.1065880   0.0000000), wk =   0.0138889
        k(   71) = (   0.4166667   1.2028131   0.0000000), wk =   0.0138889
        k(   72) = (   0.4166667   1.2990381   0.0000000), wk =   0.0138889
        k(   73) = (   0.5000000   0.2886751   0.0000000), wk =   0.0138889
        k(   74) = (   0.5000000   0.3849002   0.0000000), wk =   0.0138889
        k(   75) = (   0.5000000   0.4811252   0.0000000), wk =   0.0138889
        k(   76) = (   0.5000000   0.5773503   0.0000000), wk =   0.0138889
        k(   77) = (   0.5000000   0.6735753   0.0000000), wk =   0.0138889
        k(   78) = (   0.5000000   0.7698004   0.0000000), wk =   0.0138889
        k(   79) = (   0.5000000   0.8660254   0.0000000), wk =   0.0138889
        k(   80) = (   0.5000000   0.9622504   0.0000000), wk =   0.0138889
        k(   81) = (   0.5000000   1.0584755   0.0000000), wk =   0.0138889
        k(   82) = (   0.5000000   1.1547005   0.0000000), wk =   0.0138889
        k(   83) = (   0.5000000   1.2509256   0.0000000), wk =   0.0138889
        k(   84) = (   0.5000000   1.3471506   0.0000000), wk =   0.0138889
        k(   85) = (   0.5833333   0.3367877   0.0000000), wk =   0.0138889
        k(   86) = (   0.5833333   0.4330127   0.0000000), wk =   0.0138889
        k(   87) = (   0.5833333   0.5292377   0.0000000), wk =   0.0138889
        k(   88) = (   0.5833333   0.6254628   0.0000000), wk =   0.0138889
        k(   89) = (   0.5833333   0.7216878   0.0000000), wk =   0.0138889
        k(   90) = (   0.5833333   0.8179129   0.0000000), wk =   0.0138889
        k(   91) = (   0.5833333   0.9141379   0.0000000), wk =   0.0138889
        k(   92) = (   0.5833333   1.0103630   0.0000000), wk =   0.0138889
        k(   93) = (   0.5833333   1.1065880   0.0000000), wk =   0.0138889
        k(   94) = (   0.5833333   1.2028131   0.0000000), wk =   0.0138889
        k(   95) = (   0.5833333   1.2990381   0.0000000), wk =   0.0138889
        k(   96) = (   0.5833333   1.3952632   0.0000000), wk =   0.0138889
        k(   97) = (   0.6666667   0.3849002   0.0000000), wk =   0.0138889
        k(   98) = (   0.6666667   0.4811252   0.0000000), wk =   0.0138889
        k(   99) = (   0.6666667   0.5773503   0.0000000), wk =   0.0138889
        k(  100) = (   0.6666667   0.6735753   0.0000000), wk =   0.0138889
        k(  101) = (   0.6666667   0.7698004   0.0000000), wk =   0.0138889
        k(  102) = (   0.6666667   0.8660254   0.0000000), wk =   0.0138889
        k(  103) = (   0.6666667   0.9622505   0.0000000), wk =   0.0138889
        k(  104) = (   0.6666667   1.0584755   0.0000000), wk =   0.0138889
        k(  105) = (   0.6666667   1.1547005   0.0000000), wk =   0.0138889
        k(  106) = (   0.6666667   1.2509256   0.0000000), wk =   0.0138889
        k(  107) = (   0.6666667   1.3471506   0.0000000), wk =   0.0138889
        k(  108) = (   0.6666667   1.4433757   0.0000000), wk =   0.0138889
        k(  109) = (   0.7500000   0.4330127   0.0000000), wk =   0.0138889
        k(  110) = (   0.7500000   0.5292377   0.0000000), wk =   0.0138889
        k(  111) = (   0.7500000   0.6254628   0.0000000), wk =   0.0138889
        k(  112) = (   0.7500000   0.7216878   0.0000000), wk =   0.0138889
        k(  113) = (   0.7500000   0.8179129   0.0000000), wk =   0.0138889
        k(  114) = (   0.7500000   0.9141379   0.0000000), wk =   0.0138889
        k(  115) = (   0.7500000   1.0103630   0.0000000), wk =   0.0138889
        k(  116) = (   0.7500000   1.1065880   0.0000000), wk =   0.0138889
        k(  117) = (   0.7500000   1.2028131   0.0000000), wk =   0.0138889
        k(  118) = (   0.7500000   1.2990381   0.0000000), wk =   0.0138889
        k(  119) = (   0.7500000   1.3952631   0.0000000), wk =   0.0138889
        k(  120) = (   0.7500000   1.4914882   0.0000000), wk =   0.0138889
        k(  121) = (   0.8333333   0.4811252   0.0000000), wk =   0.0138889
        k(  122) = (   0.8333333   0.5773503   0.0000000), wk =   0.0138889
        k(  123) = (   0.8333333   0.6735753   0.0000000), wk =   0.0138889
        k(  124) = (   0.8333333   0.7698004   0.0000000), wk =   0.0138889
        k(  125) = (   0.8333333   0.8660254   0.0000000), wk =   0.0138889
        k(  126) = (   0.8333333   0.9622505   0.0000000), wk =   0.0138889
        k(  127) = (   0.8333333   1.0584755   0.0000000), wk =   0.0138889
        k(  128) = (   0.8333333   1.1547005   0.0000000), wk =   0.0138889
        k(  129) = (   0.8333333   1.2509256   0.0000000), wk =   0.0138889
        k(  130) = (   0.8333333   1.3471506   0.0000000), wk =   0.0138889
        k(  131) = (   0.8333333   1.4433757   0.0000000), wk =   0.0138889
        k(  132) = (   0.8333333   1.5396007   0.0000000), wk =   0.0138889
        k(  133) = (   0.9166667   0.5292377   0.0000000), wk =   0.0138889
        k(  134) = (   0.9166667   0.6254628   0.0000000), wk =   0.0138889
        k(  135) = (   0.9166667   0.7216878   0.0000000), wk =   0.0138889
        k(  136) = (   0.9166667   0.8179129   0.0000000), wk =   0.0138889
        k(  137) = (   0.9166667   0.9141379   0.0000000), wk =   0.0138889
        k(  138) = (   0.9166667   1.0103630   0.0000000), wk =   0.0138889
        k(  139) = (   0.9166667   1.1065880   0.0000000), wk =   0.0138889
        k(  140) = (   0.9166667   1.2028131   0.0000000), wk =   0.0138889
        k(  141) = (   0.9166667   1.2990381   0.0000000), wk =   0.0138889
        k(  142) = (   0.9166667   1.3952632   0.0000000), wk =   0.0138889
        k(  143) = (   0.9166667   1.4914882   0.0000000), wk =   0.0138889
        k(  144) = (   0.9166667   1.5877132   0.0000000), wk =   0.0138889

     PseudoPot. # 1 for C  read from file:
     ./C.pbe-hgh.UPF
     MD5 check sum: ca26ff84b356733038fc2f5c468d1892
     Pseudo is Norm-conserving, Zval =  4.0
     Generated in analytical, separable form
     Using radial grid of 1073 points,  1 beta functions with: 
                l(1) =   0

     PseudoPot. # 2 for H  read from file:
     ./H.pbe-hgh.UPF
     MD5 check sum: 50ae4f52d34cf16cdfed4bce9c5a191e
     Pseudo is Norm-conserving, Zval =  1.0
     Generated in analytical, separable form
     Using radial grid of  929 points,  0 beta functions with: 
     EPW          :      0.41s CPU      0.57s WALL

     EPW          :      1.03s CPU      1.20s WALL

     -------------------------------------------------------------------
     Wannierization on 12 x 12 x  1 electronic grid
     -------------------------------------------------------------------

     Spin CASE ( default = unpolarized )

     Initializing Wannier90


     Initial Wannier auto_projections


      - Number of bands is ( 12)
      - Number of total bands is ( 12)
      - Number of excluded bands is (  0)
      - Number of wannier functions is ( 12)

  Reading data about k-point neighbours 

      - All neighbours are found 

 Case  : isolated

     AMN with SCDM
      k points =   144 in    8 pools
            1 of   18 on ionode
            2 of   18 on ionode
            3 of   18 on ionode
            4 of   18 on ionode
            5 of   18 on ionode
            6 of   18 on ionode
            7 of   18 on ionode
            8 of   18 on ionode
            9 of   18 on ionode
           10 of   18 on ionode
           11 of   18 on ionode
           12 of   18 on ionode
           13 of   18 on ionode
           14 of   18 on ionode
           15 of   18 on ionode
           16 of   18 on ionode
           17 of   18 on ionode
           18 of   18 on ionode

     AMN calculated with SCDM

     MMN
      k points =   144 in    8 pools
            1 of   18 on ionode
            2 of   18 on ionode
            3 of   18 on ionode
            4 of   18 on ionode
            5 of   18 on ionode
            6 of   18 on ionode
            7 of   18 on ionode
            8 of   18 on ionode
            9 of   18 on ionode
           10 of   18 on ionode
           11 of   18 on ionode
           12 of   18 on ionode
           13 of   18 on ionode
           14 of   18 on ionode
           15 of   18 on ionode
           16 of   18 on ionode
           17 of   18 on ionode
           18 of   18 on ionode
     MMN calculated

     Running Wannier90

     Wannier Function centers (cartesian, alat) and spreads (ang):

     (   0.08166  -0.00306  -3.12533) :  15.80977
     (  -0.26071   0.37051  -3.26951) :  26.69292
     (  -0.52910   0.00704  -3.85562) :   0.99513
     (  -0.50344   0.27556  -3.63658) :   2.54016
     (   0.39468  -0.24211   3.23079) :  18.11681
     (  -0.58032   0.40113  -3.05389) :  34.69160
     (  -0.22635   0.10562  -3.72637) :   9.63544
     (   0.48238  -0.28820   3.61625) :   1.32432
     (  -0.43828   0.00378   2.26699) :  20.70556
     (   0.24456  -0.13058  -1.06565) :  17.38191
     (  -0.43119   0.31056  -2.58499) :  14.34935
     (   0.81054  -0.23690   1.48126) :  20.08344

     -------------------------------------------------------------------
     WANNIER      :     22.66s CPU     22.96s WALL (       1 calls)
     -------------------------------------------------------------------

     Calculating kgmap

     Progress kgmap: ########################################
     kmaps        :      0.15s CPU      0.19s WALL (       1 calls)
     Symmetries of Bravais lattice:  24
     Symmetries of crystal:           2


     ===================================================================
     irreducible q point #    1
     ===================================================================

     Symmetries of small group of q:  2
          in addition sym. q -> -q+G:

     Number of q in the star =    1
     List of q in the star:
          1   0.000000000   0.000000000   0.000000000
     Imposing acoustic sum rule on the dynamical matrix
     Read dielectric tensor and effective charges

        q(    1 ) = (   0.0000000   0.0000000   0.0000000 )


     ===================================================================
     irreducible q point #    2
     ===================================================================

     Symmetries of small group of q:  2

     Number of q in the star =    1
     List of q in the star:
          1   0.000000000   0.096225045   0.000000000
     In addition there is the -q list: 
          1  -0.000000000  -0.096225045  -0.000000000

        q(    2 ) = (   0.0000000   0.0962250   0.0000000 )

        q(    3 ) = (  -0.0000000  -0.0962250  -0.0000000 )


     ===================================================================
     irreducible q point #    3
     ===================================================================

     Symmetries of small group of q:  2

     Number of q in the star =    1
     List of q in the star:
          1   0.000000000   0.192450090   0.000000000
     In addition there is the -q list: 
          1  -0.000000000  -0.192450090  -0.000000000

        q(    4 ) = (   0.0000000   0.1924501   0.0000000 )

        q(    5 ) = (  -0.0000000  -0.1924501  -0.0000000 )


     ===================================================================
     irreducible q point #    4
     ===================================================================

     Symmetries of small group of q:  2

     Number of q in the star =    1
     List of q in the star:
          1   0.000000000   0.288675135   0.000000000
     In addition there is the -q list: 
          1  -0.000000000  -0.288675135  -0.000000000

        q(    6 ) = (   0.0000000   0.2886751   0.0000000 )

        q(    7 ) = (  -0.0000000  -0.2886751  -0.0000000 )


     ===================================================================
     irreducible q point #    5
     ===================================================================

     Symmetries of small group of q:  2

     Number of q in the star =    1
     List of q in the star:
          1   0.000000000   0.384900179   0.000000000
     In addition there is the -q list: 
          1  -0.000000000  -0.384900179  -0.000000000

        q(    8 ) = (   0.0000000   0.3849002   0.0000000 )

        q(    9 ) = (  -0.0000000  -0.3849002  -0.0000000 )


     ===================================================================
     irreducible q point #    6
     ===================================================================

     Symmetries of small group of q:  2

     Number of q in the star =    1
     List of q in the star:
          1   0.000000000   0.481125224   0.000000000
     In addition there is the -q list: 
          1  -0.000000000  -0.481125224  -0.000000000

        q(   10 ) = (   0.0000000   0.4811252   0.0000000 )

        q(   11 ) = (  -0.0000000  -0.4811252  -0.0000000 )


     ===================================================================
     irreducible q point #    7
     ===================================================================

     Symmetries of small group of q:  2
          in addition sym. q -> -q+G:

     Number of q in the star =    1
     List of q in the star:
          1   0.000000000  -0.577350269   0.000000000

        q(   12 ) = (   0.0000000  -0.5773503   0.0000000 )


     ===================================================================
     irreducible q point #    8
     ===================================================================

     Symmetries of small group of q:  1

     Number of q in the star =    2
     List of q in the star:
          1   0.083333333   0.048112522   0.000000000
          2  -0.083333333   0.048112522   0.000000000
     In addition there is the -q list: 
          1  -0.083333333  -0.048112522  -0.000000000
          2   0.083333333  -0.048112522  -0.000000000

        q(   13 ) = (   0.0833333   0.0481125   0.0000000 )

        q(   14 ) = (  -0.0833333  -0.0481125  -0.0000000 )
        q(   15 ) = (  -0.0833333   0.0481125   0.0000000 )
        q(   16 ) = (   0.0833333  -0.0481125  -0.0000000 )


     ===================================================================
     irreducible q point #    9
     ===================================================================

     Symmetries of small group of q:  1

     Number of q in the star =    2
     List of q in the star:
          1   0.083333333   0.144337567   0.000000000
          2  -0.083333333   0.144337567   0.000000000
     In addition there is the -q list: 
          1  -0.083333333  -0.144337567  -0.000000000
          2   0.083333333  -0.144337567  -0.000000000

        q(   17 ) = (   0.0833333   0.1443376   0.0000000 )

        q(   18 ) = (  -0.0833333  -0.1443376  -0.0000000 )
        q(   19 ) = (  -0.0833333   0.1443376   0.0000000 )
        q(   20 ) = (   0.0833333  -0.1443376  -0.0000000 )


     ===================================================================
     irreducible q point #   10
     ===================================================================

     Symmetries of small group of q:  1

     Number of q in the star =    2
     List of q in the star:
          1   0.083333333   0.240562612   0.000000000
          2  -0.083333333   0.240562612   0.000000000
     In addition there is the -q list: 
          1  -0.083333333  -0.240562612  -0.000000000
          2   0.083333333  -0.240562612  -0.000000000

        q(   21 ) = (   0.0833333   0.2405626   0.0000000 )

        q(   22 ) = (  -0.0833333  -0.2405626  -0.0000000 )
        q(   23 ) = (  -0.0833333   0.2405626   0.0000000 )
        q(   24 ) = (   0.0833333  -0.2405626  -0.0000000 )


     ===================================================================
     irreducible q point #   11
     ===================================================================

     Symmetries of small group of q:  1

     Number of q in the star =    2
     List of q in the star:
          1   0.083333333   0.336787657   0.000000000
          2  -0.083333333   0.336787657   0.000000000
     In addition there is the -q list: 
          1  -0.083333333  -0.336787657  -0.000000000
          2   0.083333333  -0.336787657  -0.000000000

        q(   25 ) = (   0.0833333   0.3367877   0.0000000 )

        q(   26 ) = (  -0.0833333  -0.3367877  -0.0000000 )
        q(   27 ) = (  -0.0833333   0.3367877   0.0000000 )
        q(   28 ) = (   0.0833333  -0.3367877  -0.0000000 )


     ===================================================================
     irreducible q point #   12
     ===================================================================

     Symmetries of small group of q:  1

     Number of q in the star =    2
     List of q in the star:
          1   0.083333333   0.433012702   0.000000000
          2  -0.083333333   0.433012702   0.000000000
     In addition there is the -q list: 
          1  -0.083333333  -0.433012702  -0.000000000
          2   0.083333333  -0.433012702  -0.000000000

        q(   29 ) = (   0.0833333   0.4330127   0.0000000 )

        q(   30 ) = (  -0.0833333  -0.4330127  -0.0000000 )
        q(   31 ) = (  -0.0833333   0.4330127   0.0000000 )
        q(   32 ) = (   0.0833333  -0.4330127  -0.0000000 )


     ===================================================================
     irreducible q point #   13
     ===================================================================

     Symmetries of small group of q:  1

     Number of q in the star =    2
     List of q in the star:
          1   0.083333333   0.529237747   0.000000000
          2  -0.083333333   0.529237747   0.000000000
     In addition there is the -q list: 
          1  -0.083333333  -0.529237747  -0.000000000
          2   0.083333333  -0.529237747  -0.000000000

        q(   33 ) = (   0.0833333   0.5292377   0.0000000 )

        q(   34 ) = (  -0.0833333  -0.5292377  -0.0000000 )
        q(   35 ) = (  -0.0833333   0.5292377   0.0000000 )
        q(   36 ) = (   0.0833333  -0.5292377  -0.0000000 )


     ===================================================================
     irreducible q point #   14
     ===================================================================

     Symmetries of small group of q:  1

     Number of q in the star =    2
     List of q in the star:
          1   0.166666667   0.096225045   0.000000000
          2  -0.166666667   0.096225045   0.000000000
     In addition there is the -q list: 
          1  -0.166666667  -0.096225045  -0.000000000
          2   0.166666667  -0.096225045  -0.000000000

        q(   37 ) = (   0.1666667   0.0962250   0.0000000 )

        q(   38 ) = (  -0.1666667  -0.0962250  -0.0000000 )
        q(   39 ) = (  -0.1666667   0.0962250   0.0000000 )
        q(   40 ) = (   0.1666667  -0.0962250  -0.0000000 )


     ===================================================================
     irreducible q point #   15
     ===================================================================

     Symmetries of small group of q:  1

     Number of q in the star =    2
     List of q in the star:
          1   0.166666667   0.192450090   0.000000000
          2  -0.166666667   0.192450090   0.000000000
     In addition there is the -q list: 
          1  -0.166666667  -0.192450090  -0.000000000
          2   0.166666667  -0.192450090  -0.000000000

        q(   41 ) = (   0.1666667   0.1924501   0.0000000 )

        q(   42 ) = (  -0.1666667  -0.1924501  -0.0000000 )
        q(   43 ) = (  -0.1666667   0.1924501   0.0000000 )
        q(   44 ) = (   0.1666667  -0.1924501  -0.0000000 )


     ===================================================================
     irreducible q point #   16
     ===================================================================

     Symmetries of small group of q:  1

     Number of q in the star =    2
     List of q in the star:
          1   0.166666667   0.288675135   0.000000000
          2  -0.166666667   0.288675135   0.000000000
     In addition there is the -q list: 
          1  -0.166666667  -0.288675135  -0.000000000
          2   0.166666667  -0.288675135  -0.000000000

        q(   45 ) = (   0.1666667   0.2886751   0.0000000 )

        q(   46 ) = (  -0.1666667  -0.2886751  -0.0000000 )
        q(   47 ) = (  -0.1666667   0.2886751   0.0000000 )
        q(   48 ) = (   0.1666667  -0.2886751  -0.0000000 )


     ===================================================================
     irreducible q point #   17
     ===================================================================

     Symmetries of small group of q:  1

     Number of q in the star =    2
     List of q in the star:
          1   0.166666667   0.384900179   0.000000000
          2  -0.166666667   0.384900179   0.000000000
     In addition there is the -q list: 
          1  -0.166666667  -0.384900179  -0.000000000
          2   0.166666667  -0.384900179  -0.000000000

        q(   49 ) = (   0.1666667   0.3849002   0.0000000 )

        q(   50 ) = (  -0.1666667  -0.3849002  -0.0000000 )
        q(   51 ) = (  -0.1666667   0.3849002   0.0000000 )
        q(   52 ) = (   0.1666667  -0.3849002  -0.0000000 )


     ===================================================================
     irreducible q point #   18
     ===================================================================

     Symmetries of small group of q:  1

     Number of q in the star =    2
     List of q in the star:
          1   0.166666667   0.481125224   0.000000000
          2  -0.166666667   0.481125224   0.000000000
     In addition there is the -q list: 
          1  -0.166666667  -0.481125224  -0.000000000
          2   0.166666667  -0.481125224  -0.000000000

        q(   53 ) = (   0.1666667   0.4811252   0.0000000 )

        q(   54 ) = (  -0.1666667  -0.4811252  -0.0000000 )
        q(   55 ) = (  -0.1666667   0.4811252   0.0000000 )
        q(   56 ) = (   0.1666667  -0.4811252  -0.0000000 )


     ===================================================================
     irreducible q point #   19
     ===================================================================

     Symmetries of small group of q:  1

     Number of q in the star =    2
     List of q in the star:
          1   0.166666667   0.577350269   0.000000000
          2  -0.166666667   0.577350269   0.000000000

        q(   57 ) = (   0.1666667   0.5773503   0.0000000 )
        q(   58 ) = (  -0.1666667   0.5773503   0.0000000 )


     ===================================================================
     irreducible q point #   20
     ===================================================================

     Symmetries of small group of q:  1

     Number of q in the star =    2
     List of q in the star:
          1   0.166666667  -0.000000000   0.000000000
          2  -0.166666667  -0.000000000   0.000000000

        q(   59 ) = (   0.1666667  -0.0000000   0.0000000 )
        q(   60 ) = (  -0.1666667  -0.0000000   0.0000000 )


     ===================================================================
     irreducible q point #   21
     ===================================================================

     Symmetries of small group of q:  1

     Number of q in the star =    2
     List of q in the star:
          1   0.250000000   0.144337567   0.000000000
          2  -0.250000000   0.144337567   0.000000000
     In addition there is the -q list: 
          1  -0.250000000  -0.144337567  -0.000000000
          2   0.250000000  -0.144337567  -0.000000000

        q(   61 ) = (   0.2500000   0.1443376   0.0000000 )

        q(   62 ) = (  -0.2500000  -0.1443376  -0.0000000 )
        q(   63 ) = (  -0.2500000   0.1443376   0.0000000 )
        q(   64 ) = (   0.2500000  -0.1443376  -0.0000000 )


     ===================================================================
     irreducible q point #   22
     ===================================================================

     Symmetries of small group of q:  1

     Number of q in the star =    2
     List of q in the star:
          1   0.250000000   0.240562612   0.000000000
          2  -0.250000000   0.240562612   0.000000000
     In addition there is the -q list: 
          1  -0.250000000  -0.240562612  -0.000000000
          2   0.250000000  -0.240562612  -0.000000000

        q(   65 ) = (   0.2500000   0.2405626   0.0000000 )

        q(   66 ) = (  -0.2500000  -0.2405626  -0.0000000 )
        q(   67 ) = (  -0.2500000   0.2405626   0.0000000 )
        q(   68 ) = (   0.2500000  -0.2405626  -0.0000000 )


     ===================================================================
     irreducible q point #   23
     ===================================================================

     Symmetries of small group of q:  1

     Number of q in the star =    2
     List of q in the star:
          1   0.250000000   0.336787657   0.000000000
          2  -0.250000000   0.336787657   0.000000000
     In addition there is the -q list: 
          1  -0.250000000  -0.336787657  -0.000000000
          2   0.250000000  -0.336787657  -0.000000000

        q(   69 ) = (   0.2500000   0.3367877   0.0000000 )

        q(   70 ) = (  -0.2500000  -0.3367877  -0.0000000 )
        q(   71 ) = (  -0.2500000   0.3367877   0.0000000 )
        q(   72 ) = (   0.2500000  -0.3367877  -0.0000000 )


     ===================================================================
     irreducible q point #   24
     ===================================================================

     Symmetries of small group of q:  1

     Number of q in the star =    2
     List of q in the star:
          1   0.250000000   0.433012702   0.000000000
          2  -0.250000000   0.433012702   0.000000000
     In addition there is the -q list: 
          1  -0.250000000  -0.433012702  -0.000000000
          2   0.250000000  -0.433012702  -0.000000000

        q(   73 ) = (   0.2500000   0.4330127   0.0000000 )

        q(   74 ) = (  -0.2500000  -0.4330127  -0.0000000 )
        q(   75 ) = (  -0.2500000   0.4330127   0.0000000 )
        q(   76 ) = (   0.2500000  -0.4330127  -0.0000000 )


     ===================================================================
     irreducible q point #   25
     ===================================================================

     Symmetries of small group of q:  1

     Number of q in the star =    2
     List of q in the star:
          1   0.250000000   0.529237747   0.000000000
          2  -0.250000000   0.529237747   0.000000000
     In addition there is the -q list: 
          1  -0.250000000  -0.529237747  -0.000000000
          2   0.250000000  -0.529237747  -0.000000000

        q(   77 ) = (   0.2500000   0.5292377   0.0000000 )

        q(   78 ) = (  -0.2500000  -0.5292377  -0.0000000 )
        q(   79 ) = (  -0.2500000   0.5292377   0.0000000 )
        q(   80 ) = (   0.2500000  -0.5292377  -0.0000000 )


     ===================================================================
     irreducible q point #   26
     ===================================================================

     Symmetries of small group of q:  1

     Number of q in the star =    2
     List of q in the star:
          1   0.250000000  -0.048112522   0.000000000
          2  -0.250000000  -0.048112522   0.000000000
     In addition there is the -q list: 
          1  -0.250000000   0.048112522  -0.000000000
          2   0.250000000   0.048112522  -0.000000000

        q(   81 ) = (   0.2500000  -0.0481125   0.0000000 )

        q(   82 ) = (  -0.2500000   0.0481125  -0.0000000 )
        q(   83 ) = (  -0.2500000  -0.0481125   0.0000000 )
        q(   84 ) = (   0.2500000   0.0481125  -0.0000000 )


     ===================================================================
     irreducible q point #   27
     ===================================================================

     Symmetries of small group of q:  1

     Number of q in the star =    2
     List of q in the star:
          1   0.333333333   0.192450090   0.000000000
          2  -0.333333333   0.192450090   0.000000000
     In addition there is the -q list: 
          1  -0.333333333  -0.192450090  -0.000000000
          2   0.333333333  -0.192450090  -0.000000000

        q(   85 ) = (   0.3333333   0.1924501   0.0000000 )

        q(   86 ) = (  -0.3333333  -0.1924501  -0.0000000 )
        q(   87 ) = (  -0.3333333   0.1924501   0.0000000 )
        q(   88 ) = (   0.3333333  -0.1924501  -0.0000000 )


     ===================================================================
     irreducible q point #   28
     ===================================================================

     Symmetries of small group of q:  1

     Number of q in the star =    2
     List of q in the star:
          1   0.333333333   0.288675135   0.000000000
          2  -0.333333333   0.288675135   0.000000000
     In addition there is the -q list: 
          1  -0.333333333  -0.288675135  -0.000000000
          2   0.333333333  -0.288675135  -0.000000000

        q(   89 ) = (   0.3333333   0.2886751   0.0000000 )

        q(   90 ) = (  -0.3333333  -0.2886751  -0.0000000 )
        q(   91 ) = (  -0.3333333   0.2886751   0.0000000 )
        q(   92 ) = (   0.3333333  -0.2886751  -0.0000000 )


     ===================================================================
     irreducible q point #   29
     ===================================================================

     Symmetries of small group of q:  1

     Number of q in the star =    2
     List of q in the star:
          1   0.333333333   0.384900179   0.000000000
          2  -0.333333333   0.384900179   0.000000000
     In addition there is the -q list: 
          1  -0.333333333  -0.384900179  -0.000000000
          2   0.333333333  -0.384900179  -0.000000000

        q(   93 ) = (   0.3333333   0.3849002   0.0000000 )

        q(   94 ) = (  -0.3333333  -0.3849002  -0.0000000 )
        q(   95 ) = (  -0.3333333   0.3849002   0.0000000 )
        q(   96 ) = (   0.3333333  -0.3849002  -0.0000000 )


     ===================================================================
     irreducible q point #   30
     ===================================================================

     Symmetries of small group of q:  1

     Number of q in the star =    2
     List of q in the star:
          1   0.333333333   0.481125224   0.000000000
          2  -0.333333333   0.481125224   0.000000000
     In addition there is the -q list: 
          1  -0.333333333  -0.481125224  -0.000000000
          2   0.333333333  -0.481125224  -0.000000000

        q(   97 ) = (   0.3333333   0.4811252   0.0000000 )

        q(   98 ) = (  -0.3333333  -0.4811252  -0.0000000 )
        q(   99 ) = (  -0.3333333   0.4811252   0.0000000 )
        q(  100 ) = (   0.3333333  -0.4811252  -0.0000000 )


     ===================================================================
     irreducible q point #   31
     ===================================================================

     Symmetries of small group of q:  1

     Number of q in the star =    2
     List of q in the star:
          1   0.333333333   0.577350269   0.000000000
          2  -0.333333333   0.577350269   0.000000000

        q(  101 ) = (   0.3333333   0.5773503   0.0000000 )
        q(  102 ) = (  -0.3333333   0.5773503   0.0000000 )


     ===================================================================
     irreducible q point #   32
     ===================================================================

     Symmetries of small group of q:  1

     Number of q in the star =    2
     List of q in the star:
          1   0.333333333  -0.096225045   0.000000000
          2  -0.333333333  -0.096225045   0.000000000
     In addition there is the -q list: 
          1  -0.333333333   0.096225045  -0.000000000
          2   0.333333333   0.096225045  -0.000000000

        q(  103 ) = (   0.3333333  -0.0962250   0.0000000 )

        q(  104 ) = (  -0.3333333   0.0962250  -0.0000000 )
        q(  105 ) = (  -0.3333333  -0.0962250   0.0000000 )
        q(  106 ) = (   0.3333333   0.0962250  -0.0000000 )


     ===================================================================
     irreducible q point #   33
     ===================================================================

     Symmetries of small group of q:  1

     Number of q in the star =    2
     List of q in the star:
          1   0.333333333   0.000000000   0.000000000
          2  -0.333333333   0.000000000   0.000000000

        q(  107 ) = (   0.3333333   0.0000000   0.0000000 )
        q(  108 ) = (  -0.3333333   0.0000000   0.0000000 )


     ===================================================================
     irreducible q point #   34
     ===================================================================

     Symmetries of small group of q:  1

     Number of q in the star =    2
     List of q in the star:
          1   0.416666667   0.240562612   0.000000000
          2  -0.416666667   0.240562612   0.000000000
     In addition there is the -q list: 
          1  -0.416666667  -0.240562612  -0.000000000
          2   0.416666667  -0.240562612  -0.000000000

        q(  109 ) = (   0.4166667   0.2405626   0.0000000 )

        q(  110 ) = (  -0.4166667  -0.2405626  -0.0000000 )
        q(  111 ) = (  -0.4166667   0.2405626   0.0000000 )
        q(  112 ) = (   0.4166667  -0.2405626  -0.0000000 )


     ===================================================================
     irreducible q point #   35
     ===================================================================

     Symmetries of small group of q:  1

     Number of q in the star =    2
     List of q in the star:
          1   0.416666667   0.336787657   0.000000000
          2  -0.416666667   0.336787657   0.000000000
     In addition there is the -q list: 
          1  -0.416666667  -0.336787657  -0.000000000
          2   0.416666667  -0.336787657  -0.000000000

        q(  113 ) = (   0.4166667   0.3367877   0.0000000 )

        q(  114 ) = (  -0.4166667  -0.3367877  -0.0000000 )
        q(  115 ) = (  -0.4166667   0.3367877   0.0000000 )
        q(  116 ) = (   0.4166667  -0.3367877  -0.0000000 )


     ===================================================================
     irreducible q point #   36
     ===================================================================

     Symmetries of small group of q:  1

     Number of q in the star =    2
     List of q in the star:
          1   0.416666667   0.433012702   0.000000000
          2  -0.416666667   0.433012702   0.000000000
     In addition there is the -q list: 
          1  -0.416666667  -0.433012702  -0.000000000
          2   0.416666667  -0.433012702  -0.000000000

        q(  117 ) = (   0.4166667   0.4330127   0.0000000 )

        q(  118 ) = (  -0.4166667  -0.4330127  -0.0000000 )
        q(  119 ) = (  -0.4166667   0.4330127   0.0000000 )
        q(  120 ) = (   0.4166667  -0.4330127  -0.0000000 )


     ===================================================================
     irreducible q point #   37
     ===================================================================

     Symmetries of small group of q:  1

     Number of q in the star =    2
     List of q in the star:
          1   0.416666667   0.529237747   0.000000000
          2  -0.416666667   0.529237747   0.000000000
     In addition there is the -q list: 
          1  -0.416666667  -0.529237747  -0.000000000
          2   0.416666667  -0.529237747  -0.000000000

        q(  121 ) = (   0.4166667   0.5292377   0.0000000 )

        q(  122 ) = (  -0.4166667  -0.5292377  -0.0000000 )
        q(  123 ) = (  -0.4166667   0.5292377   0.0000000 )
        q(  124 ) = (   0.4166667  -0.5292377  -0.0000000 )


     ===================================================================
     irreducible q point #   38
     ===================================================================

     Symmetries of small group of q:  1

     Number of q in the star =    2
     List of q in the star:
          1   0.416666667  -0.144337567   0.000000000
          2  -0.416666667  -0.144337567   0.000000000
     In addition there is the -q list: 
          1  -0.416666667   0.144337567  -0.000000000
          2   0.416666667   0.144337567  -0.000000000

        q(  125 ) = (   0.4166667  -0.1443376   0.0000000 )

        q(  126 ) = (  -0.4166667   0.1443376  -0.0000000 )
        q(  127 ) = (  -0.4166667  -0.1443376   0.0000000 )
        q(  128 ) = (   0.4166667   0.1443376  -0.0000000 )


     ===================================================================
     irreducible q point #   39
     ===================================================================

     Symmetries of small group of q:  1

     Number of q in the star =    2
     List of q in the star:
          1   0.416666667  -0.048112522   0.000000000
          2  -0.416666667  -0.048112522   0.000000000
     In addition there is the -q list: 
          1  -0.416666667   0.048112522  -0.000000000
          2   0.416666667   0.048112522  -0.000000000

        q(  129 ) = (   0.4166667  -0.0481125   0.0000000 )

        q(  130 ) = (  -0.4166667   0.0481125  -0.0000000 )
        q(  131 ) = (  -0.4166667  -0.0481125   0.0000000 )
        q(  132 ) = (   0.4166667   0.0481125  -0.0000000 )


     ===================================================================
     irreducible q point #   40
     ===================================================================

     Symmetries of small group of q:  1
          in addition sym. q -> -q+G:

     Number of q in the star =    2
     List of q in the star:
          1  -0.500000000  -0.288675135   0.000000000
          2   0.500000000  -0.288675135   0.000000000

        q(  133 ) = (  -0.5000000  -0.2886751   0.0000000 )
        q(  134 ) = (   0.5000000  -0.2886751   0.0000000 )


     ===================================================================
     irreducible q point #   41
     ===================================================================

     Symmetries of small group of q:  1

     Number of q in the star =    2
     List of q in the star:
          1  -0.500000000  -0.192450090   0.000000000
          2   0.500000000  -0.192450090   0.000000000
     In addition there is the -q list: 
          1   0.500000000   0.192450090  -0.000000000
          2  -0.500000000   0.192450090  -0.000000000

        q(  135 ) = (  -0.5000000  -0.1924501   0.0000000 )

        q(  136 ) = (   0.5000000   0.1924501  -0.0000000 )
        q(  137 ) = (   0.5000000  -0.1924501   0.0000000 )
        q(  138 ) = (  -0.5000000   0.1924501  -0.0000000 )


     ===================================================================
     irreducible q point #   42
     ===================================================================

     Symmetries of small group of q:  1

     Number of q in the star =    2
     List of q in the star:
          1  -0.500000000  -0.096225045   0.000000000
          2   0.500000000  -0.096225045   0.000000000
     In addition there is the -q list: 
          1   0.500000000   0.096225045  -0.000000000
          2  -0.500000000   0.096225045  -0.000000000

        q(  139 ) = (  -0.5000000  -0.0962250   0.0000000 )

        q(  140 ) = (   0.5000000   0.0962250  -0.0000000 )
        q(  141 ) = (   0.5000000  -0.0962250   0.0000000 )
        q(  142 ) = (  -0.5000000   0.0962250  -0.0000000 )


     ===================================================================
     irreducible q point #   43
     ===================================================================

     Symmetries of small group of q:  1

     Number of q in the star =    2
     List of q in the star:
          1  -0.500000000   0.000000000   0.000000000
          2   0.500000000   0.000000000   0.000000000

        q(  143 ) = (  -0.5000000   0.0000000   0.0000000 )
        q(  144 ) = (   0.5000000   0.0000000   0.0000000 )

     Writing epmatq on .epb files


     The .epb files have been correctly written

     Use zone-centred Wigner-Seitz cells 
     Number of WS vectors for electrons      157
     Number of WS vectors for phonons      157
     Number of WS vectors for electron-phonon      157
     Maximum number of cores for efficient parallelization     1884
     Results may improve by using use_ws == .TRUE. 

     Velocity matrix elements calculated
 
 
     Bloch2wane:          1 /        144
     Bloch2wane:          2 /        144
     Bloch2wane:          3 /        144
     Bloch2wane:          4 /        144
     Bloch2wane:          5 /        144
     Bloch2wane:          6 /        144
     Bloch2wane:          7 /        144
     Bloch2wane:          8 /        144
     Bloch2wane:          9 /        144
     Bloch2wane:         10 /        144
     Bloch2wane:         11 /        144
     Bloch2wane:         12 /        144
     Bloch2wane:         13 /        144
     Bloch2wane:         14 /        144
     Bloch2wane:         15 /        144
     Bloch2wane:         16 /        144
     Bloch2wane:         17 /        144
     Bloch2wane:         18 /        144
     Bloch2wane:         19 /        144
     Bloch2wane:         20 /        144
     Bloch2wane:         21 /        144
     Bloch2wane:         22 /        144
     Bloch2wane:         23 /        144
     Bloch2wane:         24 /        144
     Bloch2wane:         25 /        144
     Bloch2wane:         26 /        144
     Bloch2wane:         27 /        144
     Bloch2wane:         28 /        144
     Bloch2wane:         29 /        144
     Bloch2wane:         30 /        144
     Bloch2wane:         31 /        144
     Bloch2wane:         32 /        144
     Bloch2wane:         33 /        144
     Bloch2wane:         34 /        144
     Bloch2wane:         35 /        144
     Bloch2wane:         36 /        144
     Bloch2wane:         37 /        144
     Bloch2wane:         38 /        144
     Bloch2wane:         39 /        144
     Bloch2wane:         40 /        144
     Bloch2wane:         41 /        144
     Bloch2wane:         42 /        144
     Bloch2wane:         43 /        144
     Bloch2wane:         44 /        144
     Bloch2wane:         45 /        144
     Bloch2wane:         46 /        144
     Bloch2wane:         47 /        144
     Bloch2wane:         48 /        144
     Bloch2wane:         49 /        144
     Bloch2wane:         50 /        144
     Bloch2wane:         51 /        144
     Bloch2wane:         52 /        144
     Bloch2wane:         53 /        144
     Bloch2wane:         54 /        144
     Bloch2wane:         55 /        144
     Bloch2wane:         56 /        144
     Bloch2wane:         57 /        144
     Bloch2wane:         58 /        144
     Bloch2wane:         59 /        144
     Bloch2wane:         60 /        144
     Bloch2wane:         61 /        144
     Bloch2wane:         62 /        144
     Bloch2wane:         63 /        144
     Bloch2wane:         64 /        144
     Bloch2wane:         65 /        144
     Bloch2wane:         66 /        144
     Bloch2wane:         67 /        144
     Bloch2wane:         68 /        144
     Bloch2wane:         69 /        144
     Bloch2wane:         70 /        144
     Bloch2wane:         71 /        144
     Bloch2wane:         72 /        144
     Bloch2wane:         73 /        144
     Bloch2wane:         74 /        144
     Bloch2wane:         75 /        144
     Bloch2wane:         76 /        144
     Bloch2wane:         77 /        144
     Bloch2wane:         78 /        144
     Bloch2wane:         79 /        144
     Bloch2wane:         80 /        144
     Bloch2wane:         81 /        144
     Bloch2wane:         82 /        144
     Bloch2wane:         83 /        144
     Bloch2wane:         84 /        144
     Bloch2wane:         85 /        144
     Bloch2wane:         86 /        144
     Bloch2wane:         87 /        144
     Bloch2wane:         88 /        144
     Bloch2wane:         89 /        144
     Bloch2wane:         90 /        144
     Bloch2wane:         91 /        144
     Bloch2wane:         92 /        144
     Bloch2wane:         93 /        144
     Bloch2wane:         94 /        144
     Bloch2wane:         95 /        144
     Bloch2wane:         96 /        144
     Bloch2wane:         97 /        144
     Bloch2wane:         98 /        144
     Bloch2wane:         99 /        144
     Bloch2wane:        100 /        144
     Bloch2wane:        101 /        144
     Bloch2wane:        102 /        144
     Bloch2wane:        103 /        144
     Bloch2wane:        104 /        144
     Bloch2wane:        105 /        144
     Bloch2wane:        106 /        144
     Bloch2wane:        107 /        144
     Bloch2wane:        108 /        144
     Bloch2wane:        109 /        144
     Bloch2wane:        110 /        144
     Bloch2wane:        111 /        144
     Bloch2wane:        112 /        144
     Bloch2wane:        113 /        144
     Bloch2wane:        114 /        144
     Bloch2wane:        115 /        144
     Bloch2wane:        116 /        144
     Bloch2wane:        117 /        144
     Bloch2wane:        118 /        144
     Bloch2wane:        119 /        144
     Bloch2wane:        120 /        144
     Bloch2wane:        121 /        144
     Bloch2wane:        122 /        144
     Bloch2wane:        123 /        144
     Bloch2wane:        124 /        144
     Bloch2wane:        125 /        144
     Bloch2wane:        126 /        144
     Bloch2wane:        127 /        144
     Bloch2wane:        128 /        144
     Bloch2wane:        129 /        144
     Bloch2wane:        130 /        144
     Bloch2wane:        131 /        144
     Bloch2wane:        132 /        144
     Bloch2wane:        133 /        144
     Bloch2wane:        134 /        144
     Bloch2wane:        135 /        144
     Bloch2wane:        136 /        144
     Bloch2wane:        137 /        144
     Bloch2wane:        138 /        144
     Bloch2wane:        139 /        144
     Bloch2wane:        140 /        144
     Bloch2wane:        141 /        144
     Bloch2wane:        142 /        144
     Bloch2wane:        143 /        144
     Bloch2wane:        144 /        144
 
     Bloch2wanp:          1 /         20
     Bloch2wanp:          2 /         20
     Bloch2wanp:          3 /         20
     Bloch2wanp:          4 /         20
     Bloch2wanp:          5 /         20
     Bloch2wanp:          6 /         20
     Bloch2wanp:          7 /         20
     Bloch2wanp:          8 /         20
     Bloch2wanp:          9 /         20
     Bloch2wanp:         10 /         20
     Bloch2wanp:         11 /         20
     Bloch2wanp:         12 /         20
     Bloch2wanp:         13 /         20
     Bloch2wanp:         14 /         20
     Bloch2wanp:         15 /         20
     Bloch2wanp:         16 /         20
     Bloch2wanp:         17 /         20
     Bloch2wanp:         18 /         20
     Bloch2wanp:         19 /         20
     Bloch2wanp:         20 /         20

     Writing Hamiltonian, Dynamical matrix and EP vertex in Wann rep to file

     ===================================================================
     Memory usage:  VmHWM =       159Mb
                   VmPeak =       392Mb
     ===================================================================
     
     Using uniform q-mesh:   72  72   1
     Size of q point mesh for interpolation:       5184
     Using uniform MP k-mesh:   72  72   1
     Size of k point mesh for interpolation:       5256
     Max number of k points per pool:              658

     Fermi energy coarse grid =  -2.725254 eV

     Fermi energy is calculated from the fine k-mesh: Ef =  -0.996690 eV

     Warning: check if difference with Fermi level fine grid makes sense

     ===================================================================

              ibndmin =     4  ebndmin =    -3.994 eV
              ibndmax =     7  ebndmax =     2.002 eV


     Number of ep-matrix elements per pool :        63168 ~=  493.50 Kb (@ 8 bytes/ DP)
     Number selected, total            100            113
     Number selected, total            200            219
     Number selected, total            300            329
     Number selected, total            400            434
     Number selected, total            500            546
     Number selected, total            600            653
     Number selected, total            700            773
     Number selected, total            800            884
     Number selected, total            900           1007
     Number selected, total           1000           1136
     Number selected, total           1100           1284
     Number selected, total           1200           2552
     Number selected, total           1300           2820
     Number selected, total           1400           2977
     Number selected, total           1500           3128
     Number selected, total           1600           3265
     Number selected, total           1700           3396
     Number selected, total           1800           3523
     Number selected, total           1900           3635
     Number selected, total           2000           3756
     Number selected, total           2100           3873
     Number selected, total           2200           3980
     Number selected, total           2300           4095
     Number selected, total           2400           4201
     Number selected, total           2500           4310
     Number selected, total           2600           4413
     Number selected, total           2700           4518
     Number selected, total           2800           4620
     Number selected, total           2900           4727
     Number selected, total           3000           4832
     Number selected, total           3100           4941
     Number selected, total           3200           5046
     Number selected, total           3300           5158
     We only need to compute     3326 q-points
      
     Valence band maximum    =  -2.582281 eV
     Conduction band minimum =   0.601540 eV

     Temperature  300.000 K
     Mobility VB Fermi level =  -2.136760 eV

     ===================================================================
     Scattering rate for IBTE
     ===================================================================

     Restart and restart_step inputs deactivated (restart point at every q-points).
     No intermediate mobility will be shown.

     Fermi Surface thickness =   3.000000 eV
     This is computed with respect to the fine Fermi level  -0.996690 eV
     Only states between  -3.996690 eV and   2.003310 eV will be included

     Save matrix elements larger than threshold:   0.232568039361E-24
      
     Progression iq (fine) =        100/      3326
     Progression iq (fine) =        200/      3326
     Progression iq (fine) =        300/      3326
     Progression iq (fine) =        400/      3326
     Progression iq (fine) =        500/      3326
     Progression iq (fine) =        600/      3326
     Progression iq (fine) =        700/      3326
     Progression iq (fine) =        800/      3326
     Progression iq (fine) =        900/      3326
     Progression iq (fine) =       1000/      3326
     Progression iq (fine) =       1100/      3326
     Progression iq (fine) =       1200/      3326
     Progression iq (fine) =       1300/      3326
     Progression iq (fine) =       1400/      3326
     Progression iq (fine) =       1500/      3326
     Progression iq (fine) =       1600/      3326
     Progression iq (fine) =       1700/      3326
     Progression iq (fine) =       1800/      3326
     Progression iq (fine) =       1900/      3326
     Progression iq (fine) =       2000/      3326
     Progression iq (fine) =       2100/      3326
     Progression iq (fine) =       2200/      3326
     Progression iq (fine) =       2300/      3326
     Progression iq (fine) =       2400/      3326
     Progression iq (fine) =       2500/      3326
     Progression iq (fine) =       2600/      3326
     Progression iq (fine) =       2700/      3326
     Progression iq (fine) =       2800/      3326
     Progression iq (fine) =       2900/      3326
     Progression iq (fine) =       3000/      3326
     Progression iq (fine) =       3100/      3326
     Progression iq (fine) =       3200/      3326
     Progression iq (fine) =       3300/      3326
      300.000     -2.1368       0.999995E+12
      
     epmatkqread automatically changed to .TRUE. as all scattering have been computed.
      
     ===================================================================
     Memory usage:  VmHWM =       159Mb
                   VmPeak =       392Mb
     ===================================================================

     Number of elements per core       2572
     Symmetry mapping finished
      
     =============================================================================================
     BTE in the self-energy relaxation time approximation (SERTA)
     =============================================================================================

     =============================================================================================
       Temp     Fermi   Hole density  Population SR                  Hole mobility 
        [K]      [eV]     [cm^-3]      [h per cell]                    [cm^2/Vs]
     =============================================================================================

      300.000  -2.1368   0.10000E+13   0.56080E-06    0.120260E+03    0.000000E+00    0.000000E+00
                                                      0.000000E+00    0.114548E+03    0.000000E+00
                                                      0.000000E+00    0.000000E+00    0.000000E+00
      
     =============================================================================================
     Start solving iterative Boltzmann Transport Equation
     =============================================================================================

     Iteration number:         1

     =============================================================================================
       Temp     Fermi   Hole density  Population SR                  Hole mobility 
        [K]      [eV]     [cm^-3]      [h per cell]                    [cm^2/Vs]
     =============================================================================================

      300.000  -2.1368   0.10000E+13   0.10793E-05    0.743344E+02    0.000000E+00    0.000000E+00
                                                      0.000000E+00    0.116830E+03    0.000000E+00
                                                      0.000000E+00    0.000000E+00    0.000000E+00

                                                      0.116830E+03    Max error
     Iteration number:         2

     =============================================================================================
       Temp     Fermi   Hole density  Population SR                  Hole mobility 
        [K]      [eV]     [cm^-3]      [h per cell]                    [cm^2/Vs]
     =============================================================================================

      300.000  -2.1368   0.10000E+13   0.17015E-05    0.975635E+02    0.000000E+00    0.000000E+00
                                                      0.000000E+00    0.107490E+03    0.000000E+00
                                                      0.000000E+00    0.000000E+00    0.000000E+00

                                                      0.934060E+01    Max error
     Iteration number:         3

     =============================================================================================
       Temp     Fermi   Hole density  Population SR                  Hole mobility 
        [K]      [eV]     [cm^-3]      [h per cell]                    [cm^2/Vs]
     =============================================================================================

      300.000  -2.1368   0.10000E+13   0.27737E-05    0.100335E+03    0.000000E+00    0.000000E+00
                                                      0.000000E+00    0.110068E+03    0.000000E+00
                                                      0.000000E+00    0.000000E+00    0.000000E+00

                                                      0.257839E+01    Max error
     Iteration number:         4

     =============================================================================================
       Temp     Fermi   Hole density  Population SR                  Hole mobility 
        [K]      [eV]     [cm^-3]      [h per cell]                    [cm^2/Vs]
     =============================================================================================

      300.000  -2.1368   0.10000E+13   0.45894E-05    0.114095E+03    0.000000E+00    0.000000E+00
                                                      0.000000E+00    0.103197E+03    0.000000E+00
                                                      0.000000E+00    0.000000E+00    0.000000E+00

                                                      0.402673E+01    Max error
     Iteration number:         5

     =============================================================================================
       Temp     Fermi   Hole density  Population SR                  Hole mobility 
        [K]      [eV]     [cm^-3]      [h per cell]                    [cm^2/Vs]
     =============================================================================================

      300.000  -2.1368   0.10000E+13   0.77105E-05    0.126934E+03    0.000000E+00    0.000000E+00
                                                      0.000000E+00    0.900531E+02    0.000000E+00
                                                      0.000000E+00    0.000000E+00    0.000000E+00

                                                      0.128396E+02    Max error
     Iteration number:         6

     =============================================================================================
       Temp     Fermi   Hole density  Population SR                  Hole mobility 
        [K]      [eV]     [cm^-3]      [h per cell]                    [cm^2/Vs]
     =============================================================================================

      300.000  -2.1368   0.10000E+13   0.13100E-04    0.140750E+03    0.000000E+00    0.000000E+00
                                                      0.000000E+00    0.656728E+02    0.000000E+00
                                                      0.000000E+00    0.000000E+00    0.000000E+00

                                                      0.138155E+02    Max error
     Iteration number:         7

     =============================================================================================
       Temp     Fermi   Hole density  Population SR                  Hole mobility 
        [K]      [eV]     [cm^-3]      [h per cell]                    [cm^2/Vs]
     =============================================================================================

      300.000  -2.1368   0.10000E+13   0.22441E-04    0.155424E+03    0.000000E+00    0.000000E+00
                                                      0.000000E+00    0.244723E+02    0.000000E+00
                                                      0.000000E+00    0.000000E+00    0.000000E+00

                                                      0.146737E+02    Max error
     Iteration number:         8

     =============================================================================================
       Temp     Fermi   Hole density  Population SR                  Hole mobility 
        [K]      [eV]     [cm^-3]      [h per cell]                    [cm^2/Vs]
     =============================================================================================

      300.000  -2.1368   0.10000E+13   0.38649E-04    0.170590E+03    0.000000E+00    0.000000E+00
                                                      0.000000E+00   -0.450430E+02    0.000000E+00
                                                      0.000000E+00    0.000000E+00    0.000000E+00

                                                      0.151665E+02    Max error
     Iteration number:         9

     =============================================================================================
       Temp     Fermi   Hole density  Population SR                  Hole mobility 
        [K]      [eV]     [cm^-3]      [h per cell]                    [cm^2/Vs]
     =============================================================================================

      300.000  -2.1368   0.10000E+13   0.66797E-04    0.186045E+03    0.000000E+00    0.000000E+00
                                                      0.000000E+00   -0.162574E+03    0.000000E+00
                                                      0.000000E+00    0.000000E+00    0.000000E+00

                                                      0.154546E+02    Max error
     Iteration number:        10

     =============================================================================================
       Temp     Fermi   Hole density  Population SR                  Hole mobility 
        [K]      [eV]     [cm^-3]      [h per cell]                    [cm^2/Vs]
     =============================================================================================

      300.000  -2.1368   0.10000E+13   0.11569E-03    0.201598E+03    0.000000E+00    0.000000E+00
                                                      0.000000E+00   -0.362447E+03    0.000000E+00
                                                      0.000000E+00    0.000000E+00    0.000000E+00

                                                      0.155537E+02    Max error
     Iteration number:        11

     =============================================================================================
       Temp     Fermi   Hole density  Population SR                  Hole mobility 
        [K]      [eV]     [cm^-3]      [h per cell]                    [cm^2/Vs]
     =============================================================================================

      300.000  -2.1368   0.10000E+13   0.20064E-03    0.217099E+03    0.000000E+00    0.000000E+00
                                                      0.000000E+00   -0.704128E+03    0.000000E+00
                                                      0.000000E+00    0.000000E+00    0.000000E+00

                                                      0.155003E+02    Max error
     Iteration number:        12

     =============================================================================================
       Temp     Fermi   Hole density  Population SR                  Hole mobility 
        [K]      [eV]     [cm^-3]      [h per cell]                    [cm^2/Vs]
     =============================================================================================

      300.000  -2.1368   0.10000E+13   0.34823E-03    0.232418E+03    0.000000E+00    0.000000E+00
                                                      0.000000E+00   -0.129075E+04    0.000000E+00
                                                      0.000000E+00    0.000000E+00    0.000000E+00

                                                      0.153189E+02    Max error
     Iteration number:        13

     =============================================================================================
       Temp     Fermi   Hole density  Population SR                  Hole mobility 
        [K]      [eV]     [cm^-3]      [h per cell]                    [cm^2/Vs]
     =============================================================================================

      300.000  -2.1368   0.10000E+13   0.60467E-03    0.247447E+03    0.000000E+00    0.000000E+00
                                                      0.000000E+00   -0.230118E+04    0.000000E+00
                                                      0.000000E+00    0.000000E+00    0.000000E+00

                                                      0.150296E+02    Max error
     Iteration number:        14

     =============================================================================================
       Temp     Fermi   Hole density  Population SR                  Hole mobility 
        [K]      [eV]     [cm^-3]      [h per cell]                    [cm^2/Vs]
     =============================================================================================

      300.000  -2.1368   0.10000E+13   0.10502E-02    0.262098E+03    0.000000E+00    0.000000E+00
                                                      0.000000E+00   -0.404580E+04    0.000000E+00
                                                      0.000000E+00    0.000000E+00    0.000000E+00

                                                      0.146504E+02    Max error
     Iteration number:        15

     =============================================================================================
       Temp     Fermi   Hole density  Population SR                  Hole mobility 
        [K]      [eV]     [cm^-3]      [h per cell]                    [cm^2/Vs]
     =============================================================================================

      300.000  -2.1368   0.10000E+13   0.18243E-02    0.276295E+03    0.000000E+00    0.000000E+00
                                                      0.000000E+00   -0.706330E+04    0.000000E+00
                                                      0.000000E+00    0.000000E+00    0.000000E+00

                                                      0.141974E+02    Max error
     Iteration number:        16

     =============================================================================================
       Temp     Fermi   Hole density  Population SR                  Hole mobility 
        [K]      [eV]     [cm^-3]      [h per cell]                    [cm^2/Vs]
     =============================================================================================

      300.000  -2.1368   0.10000E+13   0.31693E-02    0.289980E+03    0.000000E+00    0.000000E+00
                                                      0.000000E+00   -0.122889E+05    0.000000E+00
                                                      0.000000E+00    0.000000E+00    0.000000E+00

                                                      0.136850E+02    Max error
     Iteration number:        17

     =============================================================================================
       Temp     Fermi   Hole density  Population SR                  Hole mobility 
        [K]      [eV]     [cm^-3]      [h per cell]                    [cm^2/Vs]
     =============================================================================================

      300.000  -2.1368   0.10000E+13   0.55061E-02    0.303106E+03    0.000000E+00    0.000000E+00
                                                      0.000000E+00   -0.213467E+05    0.000000E+00
                                                      0.000000E+00    0.000000E+00    0.000000E+00

                                                      0.131259E+02    Max error
     Iteration number:        18

     =============================================================================================
       Temp     Fermi   Hole density  Population SR                  Hole mobility 
        [K]      [eV]     [cm^-3]      [h per cell]                    [cm^2/Vs]
     =============================================================================================

      300.000  -2.1368   0.10000E+13   0.95662E-02    0.315638E+03    0.000000E+00    0.000000E+00
                                                      0.000000E+00   -0.370572E+05    0.000000E+00
                                                      0.000000E+00    0.000000E+00    0.000000E+00

                                                      0.125316E+02    Max error
     Iteration number:        19

     =============================================================================================
       Temp     Fermi   Hole density  Population SR                  Hole mobility 
        [K]      [eV]     [cm^-3]      [h per cell]                    [cm^2/Vs]
     =============================================================================================

      300.000  -2.1368   0.10000E+13   0.16620E-01    0.327550E+03    0.000000E+00    0.000000E+00
                                                      0.000000E+00   -0.643193E+05    0.000000E+00
                                                      0.000000E+00    0.000000E+00    0.000000E+00

                                                      0.119124E+02    Max error
     Iteration number:        20

     =============================================================================================
       Temp     Fermi   Hole density  Population SR                  Hole mobility 
        [K]      [eV]     [cm^-3]      [h per cell]                    [cm^2/Vs]
[...]

      300.000  -2.1368   0.10000E+13   0.64536E+26    0.448537E+03    0.000000E+00    0.000000E+00
                                                      0.000000E+00   -0.248601E+33    0.000000E+00
                                                      0.000000E+00    0.000000E+00    0.000000E+00

                                                      0.188015E-02    Max error
     Iteration number:       135

     =============================================================================================
       Temp     Fermi   Hole density  Population SR                  Hole mobility 
        [K]      [eV]     [cm^-3]      [h per cell]                    [cm^2/Vs]
     =============================================================================================

      300.000  -2.1368   0.10000E+13   0.11213E+27    0.448539E+03    0.000000E+00    0.000000E+00
                                                      0.000000E+00   -0.431925E+33    0.000000E+00
                                                      0.000000E+00    0.000000E+00    0.000000E+00

                                                      0.171764E-02    Max error
     Iteration number:       136

     =============================================================================================
       Temp     Fermi   Hole density  Population SR                  Hole mobility 
        [K]      [eV]     [cm^-3]      [h per cell]                    [cm^2/Vs]
     =============================================================================================

      300.000  -2.1368   0.10000E+13   0.19481E+27    0.448540E+03    0.000000E+00    0.000000E+00
                                                      0.000000E+00   -0.750436E+33    0.000000E+00
                                                      0.000000E+00    0.000000E+00    0.000000E+00

                                                      0.156321E-02    Max error
     Iteration number:       137

     =============================================================================================
       Temp     Fermi   Hole density  Population SR                  Hole mobility 
        [K]      [eV]     [cm^-3]      [h per cell]                    [cm^2/Vs]
     =============================================================================================

      300.000  -2.1368   0.10000E+13   0.33847E+27    0.448542E+03    0.000000E+00    0.000000E+00
                                                      0.000000E+00   -0.130383E+34    0.000000E+00
                                                      0.000000E+00    0.000000E+00    0.000000E+00

                                                      0.141707E-02    Max error
     Iteration number:       138

     =============================================================================================
       Temp     Fermi   Hole density  Population SR                  Hole mobility 
        [K]      [eV]     [cm^-3]      [h per cell]                    [cm^2/Vs]
     =============================================================================================

      300.000  -2.1368   0.10000E+13   0.58806E+27    0.448543E+03    0.000000E+00    0.000000E+00
                                                      0.000000E+00   -0.226530E+34    0.000000E+00
                                                      0.000000E+00    0.000000E+00    0.000000E+00

                                                      0.127930E-02    Max error
     Iteration number:       139

     =============================================================================================
       Temp     Fermi   Hole density  Population SR                  Hole mobility 
        [K]      [eV]     [cm^-3]      [h per cell]                    [cm^2/Vs]
     =============================================================================================

      300.000  -2.1368   0.10000E+13   0.10217E+28    0.448544E+03    0.000000E+00    0.000000E+00
                                                      0.000000E+00   -0.393578E+34    0.000000E+00
                                                      0.000000E+00    0.000000E+00    0.000000E+00

                                                      0.114993E-02    Max error
     Iteration number:       140

     =============================================================================================
       Temp     Fermi   Hole density  Population SR                  Hole mobility 
        [K]      [eV]     [cm^-3]      [h per cell]                    [cm^2/Vs]
     =============================================================================================

      300.000  -2.1368   0.10000E+13   0.17751E+28    0.448545E+03    0.000000E+00    0.000000E+00
                                                      0.000000E+00   -0.683812E+34    0.000000E+00
                                                      0.000000E+00    0.000000E+00    0.000000E+00

                                                      0.102890E-02    Max error
     Iteration number:       141

     =============================================================================================
       Temp     Fermi   Hole density  Population SR                  Hole mobility 
        [K]      [eV]     [cm^-3]      [h per cell]                    [cm^2/Vs]
     =============================================================================================

      300.000  -2.1368   0.10000E+13   0.30842E+28    0.448546E+03    0.000000E+00    0.000000E+00
                                                      0.000000E+00   -0.118807E+35    0.000000E+00
                                                      0.000000E+00    0.000000E+00    0.000000E+00

                                                      0.916070E-03    Max error
     Iteration number:       142

     =============================================================================================
       Temp     Fermi   Hole density  Population SR                  Hole mobility 
        [K]      [eV]     [cm^-3]      [h per cell]                    [cm^2/Vs]
     =============================================================================================

      300.000  -2.1368   0.10000E+13   0.53585E+28    0.448547E+03    0.000000E+00    0.000000E+00
                                                      0.000000E+00   -0.206418E+35    0.000000E+00
                                                      0.000000E+00    0.000000E+00    0.000000E+00

                                                      0.811267E-03    Max error
     Iteration number:       143

     =============================================================================================
       Temp     Fermi   Hole density  Population SR                  Hole mobility 
        [K]      [eV]     [cm^-3]      [h per cell]                    [cm^2/Vs]
     =============================================================================================

      300.000  -2.1368   0.10000E+13   0.93100E+28    0.448548E+03    0.000000E+00    0.000000E+00
                                                      0.000000E+00   -0.358636E+35    0.000000E+00
                                                      0.000000E+00    0.000000E+00    0.000000E+00

                                                      0.714265E-03    Max error
     Iteration number:       144

     =============================================================================================
       Temp     Fermi   Hole density  Population SR                  Hole mobility 
        [K]      [eV]     [cm^-3]      [h per cell]                    [cm^2/Vs]
     =============================================================================================

      300.000  -2.1368   0.10000E+13   0.16175E+29    0.448548E+03    0.000000E+00    0.000000E+00
                                                      0.000000E+00   -0.623103E+35    0.000000E+00
                                                      0.000000E+00    0.000000E+00    0.000000E+00

                                                      0.624803E-03    Max error
     Iteration number:       145

     =============================================================================================
       Temp     Fermi   Hole density  Population SR                  Hole mobility 
        [K]      [eV]     [cm^-3]      [h per cell]                    [cm^2/Vs]
     =============================================================================================

      300.000  -2.1368   0.10000E+13   0.28104E+29    0.448549E+03    0.000000E+00    0.000000E+00
                                                      0.000000E+00   -0.108259E+36    0.000000E+00
                                                      0.000000E+00    0.000000E+00    0.000000E+00

                                                      0.542591E-03    Max error
     Iteration number:       146

     =============================================================================================
       Temp     Fermi   Hole density  Population SR                  Hole mobility 
        [K]      [eV]     [cm^-3]      [h per cell]                    [cm^2/Vs]
     =============================================================================================

      300.000  -2.1368   0.10000E+13   0.48828E+29    0.448549E+03    0.000000E+00    0.000000E+00
                                                      0.000000E+00   -0.188092E+36    0.000000E+00
                                                      0.000000E+00    0.000000E+00    0.000000E+00

                                                      0.467318E-03    Max error
     Iteration number:       147

     =============================================================================================
       Temp     Fermi   Hole density  Population SR                  Hole mobility 
        [K]      [eV]     [cm^-3]      [h per cell]                    [cm^2/Vs]
     =============================================================================================

      300.000  -2.1368   0.10000E+13   0.84835E+29    0.448550E+03    0.000000E+00    0.000000E+00
                                                      0.000000E+00   -0.326796E+36    0.000000E+00
                                                      0.000000E+00    0.000000E+00    0.000000E+00

                                                      0.398656E-03    Max error
     Iteration number:       148

     =============================================================================================
       Temp     Fermi   Hole density  Population SR                  Hole mobility 
        [K]      [eV]     [cm^-3]      [h per cell]                    [cm^2/Vs]
     =============================================================================================

      300.000  -2.1368   0.10000E+13   0.14739E+30    0.448550E+03    0.000000E+00    0.000000E+00
                                                      0.000000E+00   -0.567783E+36    0.000000E+00
                                                      0.000000E+00    0.000000E+00    0.000000E+00

                                                      0.336264E-03    Max error
     Iteration number:       149

     =============================================================================================
       Temp     Fermi   Hole density  Population SR                  Hole mobility 
        [K]      [eV]     [cm^-3]      [h per cell]                    [cm^2/Vs]
     =============================================================================================

      300.000  -2.1368   0.10000E+13   0.25609E+30    0.448550E+03    0.000000E+00    0.000000E+00
                                                      0.000000E+00   -0.986480E+36    0.000000E+00
                                                      0.000000E+00    0.000000E+00    0.000000E+00

                                                      0.279798E-03    Max error
     Iteration number:       150

     =============================================================================================
       Temp     Fermi   Hole density  Population SR                  Hole mobility 
        [K]      [eV]     [cm^-3]      [h per cell]                    [cm^2/Vs]
     =============================================================================================

      300.000  -2.1368   0.10000E+13   0.44493E+30    0.448551E+03    0.000000E+00    0.000000E+00
                                                      0.000000E+00   -0.171393E+37    0.000000E+00
                                                      0.000000E+00    0.000000E+00    0.000000E+00

                                                      0.228908E-03    Max error
     Iteration number:       151

     =============================================================================================
       Temp     Fermi   Hole density  Population SR                  Hole mobility 
        [K]      [eV]     [cm^-3]      [h per cell]                    [cm^2/Vs]
     =============================================================================================

      300.000  -2.1368   0.10000E+13   0.77303E+30    0.448551E+03    0.000000E+00    0.000000E+00
                                                      0.000000E+00   -0.297783E+37    0.000000E+00
                                                      0.000000E+00    0.000000E+00    0.000000E+00

                                                      0.183248E-03    Max error
     Iteration number:       152

     =============================================================================================
       Temp     Fermi   Hole density  Population SR                  Hole mobility 
        [K]      [eV]     [cm^-3]      [h per cell]                    [cm^2/Vs]
     =============================================================================================

      300.000  -2.1368   0.10000E+13   0.13431E+31    0.448551E+03    0.000000E+00    0.000000E+00
                                                      0.000000E+00   -0.517375E+37    0.000000E+00
                                                      0.000000E+00    0.000000E+00    0.000000E+00

                                                      0.142472E-03    Max error
     Iteration number:       153

     =============================================================================================
       Temp     Fermi   Hole density  Population SR                  Hole mobility 
        [K]      [eV]     [cm^-3]      [h per cell]                    [cm^2/Vs]
     =============================================================================================

      300.000  -2.1368   0.10000E+13   0.23335E+31    0.448551E+03    0.000000E+00    0.000000E+00
                                                      0.000000E+00   -0.898900E+37    0.000000E+00
                                                      0.000000E+00    0.000000E+00    0.000000E+00

                                                      0.106244E-03    Max error
     Iteration number:       154

     =============================================================================================
       Temp     Fermi   Hole density  Population SR                  Hole mobility 
        [K]      [eV]     [cm^-3]      [h per cell]                    [cm^2/Vs]
     =============================================================================================

      300.000  -2.1368   0.10000E+13   0.40543E+31    0.448551E+03    0.000000E+00    0.000000E+00
                                                      0.000000E+00   -0.156177E+38    0.000000E+00
                                                      0.000000E+00    0.000000E+00    0.000000E+00

                                                      0.742335E-04    Max error
     Iteration number:       155

     =============================================================================================
       Temp     Fermi   Hole density  Population SR                  Hole mobility 
        [K]      [eV]     [cm^-3]      [h per cell]                    [cm^2/Vs]
     =============================================================================================

      300.000  -2.1368   0.10000E+13   0.70440E+31    0.448551E+03    0.000000E+00    0.000000E+00
                                                      0.000000E+00   -0.271346E+38    0.000000E+00
                                                      0.000000E+00    0.000000E+00    0.000000E+00

                                                      0.461213E-04    Max error
     Iteration number:       156

     =============================================================================================
       Temp     Fermi   Hole density  Population SR                  Hole mobility 
        [K]      [eV]     [cm^-3]      [h per cell]                    [cm^2/Vs]
     =============================================================================================

      300.000  -2.1368   0.10000E+13   0.12238E+32    0.448551E+03    0.000000E+00    0.000000E+00
                                                      0.000000E+00   -0.471442E+38    0.000000E+00
                                                      0.000000E+00    0.000000E+00    0.000000E+00

                                                      0.215991E-04    Max error
     Iteration number:       157

     =============================================================================================
       Temp     Fermi   Hole density  Population SR                  Hole mobility 
        [K]      [eV]     [cm^-3]      [h per cell]                    [cm^2/Vs]
     =============================================================================================

      300.000  -2.1368   0.10000E+13   0.21263E+32    0.448551E+03    0.000000E+00    0.000000E+00
                                                      0.000000E+00   -0.819095E+38    0.000000E+00
                                                      0.000000E+00    0.000000E+00    0.000000E+00

                                                      0.371309E-06    Max error
 
     Printing the state-resolved mobility to mobility_nk.fmt file

     Unfolding on the coarse grid
     elphon_wrap  :   3039.93s CPU   3093.09s WALL (       1 calls)

     INITIALIZATION: 

     init_vloc    :      0.03s CPU      0.03s WALL (       1 calls)
     init_us_1    :      0.01s CPU      0.01s WALL (       2 calls)



     Electron-Phonon interpolation
     ephwann      :    492.40s CPU    647.06s WALL (       1 calls)
     ep-interp    :    469.89s CPU    612.25s WALL (    3326 calls)

     Ham: step 1  :      0.00s CPU      0.00s WALL (       1 calls)
     Ham: step 2  :      0.00s CPU      0.00s WALL (       1 calls)
     ep: step 1   :      0.22s CPU      0.25s WALL (    1728 calls)
     ep: step 2   :    491.83s CPU    646.42s WALL (       1 calls)
     DynW2B       :      0.34s CPU      0.34s WALL (    3326 calls)
     HamW2B       :    166.11s CPU    176.05s WALL ( 2189495 calls)
     ephW2Bp      :    174.36s CPU    296.45s WALL (    3326 calls)
     ephW2B       :     40.21s CPU     44.36s WALL (   55991 calls)
     print_ibte   :     37.86s CPU     40.24s WALL (    3326 calls)
     vmewan2bloch :     32.33s CPU     35.70s WALL (  111982 calls)
     vmewan2bloch :     32.33s CPU     35.70s WALL (  111982 calls)


     Total program execution
     EPW          :  59m16.01s CPU      1h 2m WALL

     ===============================================================================
     The functionality-dependent EPW.bib file was created with suggested citations. 
     Please consider citing the papers listed in EPW.bib.                           
     ===============================================================================
                                                                                    
