
     Program PWSCF v.7.0 starts on 29Mar2023 at  0:40:36 

     This program is part of the open-source Quantum ESPRESSO suite
     for quantum simulation of materials; please cite
         "P. Giannozzi et al., J. Phys.:Condens. Matter 21 395502 (2009);
         "P. Giannozzi et al., J. Phys.:Condens. Matter 29 465901 (2017);
         "P. Giannozzi et al., J. Chem. Phys. 152 154105 (2020);
          URL http://www.quantum-espresso.org", 
     in publications or presentations arising from this work. More details at
     http://www.quantum-espresso.org/quote

     Parallel version (MPI), running on     8 processors

     MPI processes distributed on     1 nodes
     R & G space division:  proc/nbgrp/npool/nimage =       8
     4493 MiB available memory on the printing compute node when the environment starts

     Waiting for input...
     Reading input from standard input

     Current dimensions of program PWSCF are:
     Max number of different atomic species (ntypx) = 10
     Max number of k-points (npk) =  40000
     Max angular momentum in pseudopotentials (lmaxx) =  4

     Subspace diagonalization in iterative solution of the eigenvalue problem:
     a serial algorithm will be used


     Parallelization info
     --------------------
     sticks:   dense  smooth     PW     G-vecs:    dense   smooth      PW
     Min          47      47     15                 5907     5907    1023
     Max          48      48     16                 5932     5932    1044
     Sum         379     379    121                47317    47317    8263

     Using Slab Decomposition



     bravais-lattice index     =           12
     lattice parameter (alat)  =       4.7961  a.u.
     unit-cell volume          =     752.9055 (a.u.)^3
     number of atoms/cell      =            4
     number of atomic types    =            2
     number of electrons       =        10.00
     number of Kohn-Sham states=           12
     kinetic-energy cutoff     =      60.0000  Ry
     charge density cutoff     =     240.0000  Ry
     scf convergence threshold =      1.0E-12
     mixing beta               =       0.7000
     number of iterations used =            8  plain     mixing
     Exchange-correlation= PBE
                           (   1   4   3   4   0   0   0)

     celldm(1)=   4.796125  celldm(2)=   1.000000  celldm(3)=   7.880221
     celldm(4)=  -0.500000  celldm(5)=   0.000000  celldm(6)=   0.000000

     crystal axes: (cart. coord. in units of alat)
               a(1) = (   1.000000   0.000000   0.000000 )  
               a(2) = (  -0.500000   0.866025   0.000000 )  
               a(3) = (   0.000000   0.000000   7.880221 )  

     reciprocal axes: (cart. coord. in units 2 pi/alat)
               b(1) = (  1.000000  0.577350 -0.000000 )  
               b(2) = (  0.000000  1.154701  0.000000 )  
               b(3) = (  0.000000 -0.000000  0.126900 )  


     PseudoPot. # 1 for C  read from file:
     ./C.pbe-n-rrkjus_psl.1.0.0.UPF
     MD5 check sum: 1fdd950c42eb37d8afe3dd2f8d12311e
     Pseudo is Ultrasoft + core correction, Zval =  4.0
     Generated using &quot;atomic&quot; code by A. Dal Corso  v.6.3MaX
     Using radial grid of 1073 points,  4 beta functions with: 
                l(1) =   0
                l(2) =   0
                l(3) =   1
                l(4) =   1
     Q(r) pseudized with 0 coefficients 


     PseudoPot. # 2 for H  read from file:
     ./H.pbe-rrkjus_psl.1.0.0.UPF
     MD5 check sum: 3f4114867bd07edc7f1424d066fc1888
     Pseudo is Ultrasoft, Zval =  1.0
     Generated using &quot;atomic&quot; code by A. Dal Corso  v.6.3MaX
     Using radial grid of  929 points,  2 beta functions with: 
                l(1) =   0
                l(2) =   0
     Q(r) pseudized with 0 coefficients 


     atomic species   valence    mass     pseudopotential
        C              4.00    12.01100     C ( 1.00)
        H              1.00     1.00790     H ( 1.00)

      2 Sym. Ops. (no inversion) found



   Cartesian axes

     site n.     atom                  positions (alat units)
         1           C   tau(   1) = (  -0.0000001   0.5774215   3.9401877  )
         2           C   tau(   2) = (   0.5000001   0.2887421   4.1212739  )
         3           H   tau(   3) = (  -0.0000001   0.5774352   3.5021743  )
         4           H   tau(   4) = (   0.5000001   0.2887283   4.5592956  )

     number of k points=    43
                       cart. coord. in units 2pi/alat
        k(    1) = (   0.0000000   0.0000000   0.0000000), wk =   0.0138889
        k(    2) = (   0.0000000   0.0962250   0.0000000), wk =   0.0277778
        k(    3) = (   0.0000000   0.1924501   0.0000000), wk =   0.0277778
        k(    4) = (   0.0000000   0.2886751   0.0000000), wk =   0.0277778
        k(    5) = (   0.0000000   0.3849002   0.0000000), wk =   0.0277778
        k(    6) = (   0.0000000   0.4811252   0.0000000), wk =   0.0277778
        k(    7) = (   0.0000000  -0.5773503   0.0000000), wk =   0.0138889
        k(    8) = (   0.0833333   0.1443376   0.0000000), wk =   0.0555556
        k(    9) = (   0.0833333   0.2405626   0.0000000), wk =   0.0555556
        k(   10) = (   0.0833333   0.3367877   0.0000000), wk =   0.0555556
        k(   11) = (   0.0833333   0.4330127   0.0000000), wk =   0.0555556
        k(   12) = (   0.0833333   0.5292377   0.0000000), wk =   0.0555556
        k(   13) = (   0.1666667   0.2886751   0.0000000), wk =   0.0555556
        k(   14) = (   0.1666667   0.3849002   0.0000000), wk =   0.0555556
        k(   15) = (   0.1666667   0.4811252   0.0000000), wk =   0.0555556
        k(   16) = (   0.1666667   0.5773503   0.0000000), wk =   0.0277778
        k(   17) = (   0.2500000   0.4330127   0.0000000), wk =   0.0555556
        k(   18) = (   0.2500000   0.5292377   0.0000000), wk =   0.0555556
        k(   19) = (   0.3333333   0.5773503   0.0000000), wk =   0.0277778
        k(   20) = (  -0.0833333   0.0481125   0.0000000), wk =   0.0555556
        k(   21) = (  -0.1666667   0.0962250   0.0000000), wk =   0.0555556
        k(   22) = (  -0.2500000   0.1443376   0.0000000), wk =   0.0555556
        k(   23) = (  -0.3333333   0.1924501   0.0000000), wk =   0.0555556
        k(   24) = (  -0.4166667   0.2405626   0.0000000), wk =   0.0555556
        k(   25) = (   0.5000000  -0.2886751   0.0000000), wk =   0.0277778
        k(   26) = (   0.1666667  -0.0000000   0.0000000), wk =   0.0277778
        k(   27) = (  -0.1666667   0.1924501   0.0000000), wk =   0.0555556
        k(   28) = (   0.2500000   0.0481125   0.0000000), wk =   0.0555556
        k(   29) = (  -0.2500000   0.2405626   0.0000000), wk =   0.0555556
        k(   30) = (   0.3333333   0.0962250   0.0000000), wk =   0.0555556
        k(   31) = (  -0.3333333   0.2886751   0.0000000), wk =   0.0555556
        k(   32) = (   0.4166667   0.1443376   0.0000000), wk =   0.0555556
        k(   33) = (  -0.4166667   0.3367877   0.0000000), wk =   0.0555556
        k(   34) = (   0.5000000   0.1924501   0.0000000), wk =   0.0555556
        k(   35) = (   0.3333333  -0.0000000   0.0000000), wk =   0.0277778
        k(   36) = (  -0.2500000   0.3367877   0.0000000), wk =   0.0555556
        k(   37) = (   0.4166667   0.0481125   0.0000000), wk =   0.0555556
        k(   38) = (  -0.3333333   0.3849002   0.0000000), wk =   0.0555556
        k(   39) = (   0.5000000   0.0962250   0.0000000), wk =   0.0555556
        k(   40) = (  -0.4166667   0.4330127   0.0000000), wk =   0.0555556
        k(   41) = (   0.5000000   0.0000000   0.0000000), wk =   0.0277778
        k(   42) = (  -0.3333333   0.4811252   0.0000000), wk =   0.0555556
        k(   43) = (   0.5833333   0.0481125   0.0000000), wk =   0.0555556

     Dense  grid:    47317 G-vectors     FFT dimensions: (  24,  24, 192)

     Estimated max dynamical RAM per process >      14.54 MB

     Estimated total dynamical RAM >     116.31 MB

     Check: negative core charge=   -0.000011

     Initial potential from superposition of free atoms

     starting charge       9.9999, renormalised to      10.0000

     negative rho (up, down):  3.506E-04 0.000E+00
     Starting wfcs are   10 randomized atomic wfcs +    2 random wfcs

     total cpu time spent up to now is        0.7 secs

     Self-consistent Calculation

     iteration #  1     ecut=    60.00 Ry     beta= 0.70
     Davidson diagonalization with overlap
     ethr =  1.00E-02,  avg # of iterations =  8.9

     negative rho (up, down):  6.407E-04 0.000E+00

     total cpu time spent up to now is        3.2 secs

     total energy              =     -27.13031773 Ry
     estimated scf accuracy    <       0.37594803 Ry

     iteration #  2     ecut=    60.00 Ry     beta= 0.70
     Davidson diagonalization with overlap
     ethr =  3.76E-03,  avg # of iterations =  5.7

     negative rho (up, down):  6.218E-04 0.000E+00

     total cpu time spent up to now is        5.0 secs

     total energy              =     -27.19910460 Ry
     estimated scf accuracy    <       0.08668237 Ry

     iteration #  3     ecut=    60.00 Ry     beta= 0.70
     Davidson diagonalization with overlap
     ethr =  8.67E-04,  avg # of iterations =  4.1

     negative rho (up, down):  6.840E-04 0.000E+00

     total cpu time spent up to now is        6.2 secs

     total energy              =     -27.21975163 Ry
     estimated scf accuracy    <       0.00342085 Ry

     iteration #  4     ecut=    60.00 Ry     beta= 0.70
     Davidson diagonalization with overlap
     ethr =  3.42E-05,  avg # of iterations =  6.5

     negative rho (up, down):  6.881E-04 0.000E+00

     total cpu time spent up to now is        7.9 secs

     total energy              =     -27.22028819 Ry
     estimated scf accuracy    <       0.00001982 Ry

     iteration #  5     ecut=    60.00 Ry     beta= 0.70
     Davidson diagonalization with overlap
     c_bands:  1 eigenvalues not converged
     ethr =  1.98E-07,  avg # of iterations =  5.0

     negative rho (up, down):  6.904E-04 0.000E+00

     total cpu time spent up to now is        9.2 secs

     total energy              =     -27.22029419 Ry
     estimated scf accuracy    <       0.00000113 Ry

     iteration #  6     ecut=    60.00 Ry     beta= 0.70
     Davidson diagonalization with overlap
     ethr =  1.13E-08,  avg # of iterations =  1.8

     negative rho (up, down):  6.908E-04 0.000E+00

     total cpu time spent up to now is       10.5 secs

     total energy              =     -27.22029437 Ry
     estimated scf accuracy    <       0.00000003 Ry

     iteration #  7     ecut=    60.00 Ry     beta= 0.70
     Davidson diagonalization with overlap
     ethr =  2.71E-10,  avg # of iterations =  2.6

     negative rho (up, down):  6.908E-04 0.000E+00

     total cpu time spent up to now is       11.9 secs

     total energy              =     -27.22029438 Ry
     estimated scf accuracy    <          7.5E-09 Ry

     iteration #  8     ecut=    60.00 Ry     beta= 0.70
     Davidson diagonalization with overlap
     ethr =  7.55E-11,  avg # of iterations =  1.7

     negative rho (up, down):  6.908E-04 0.000E+00

     total cpu time spent up to now is       12.9 secs

     total energy              =     -27.22029438 Ry
     estimated scf accuracy    <          1.2E-09 Ry

     iteration #  9     ecut=    60.00 Ry     beta= 0.70
     Davidson diagonalization with overlap
     ethr =  1.20E-11,  avg # of iterations =  2.0

     negative rho (up, down):  6.908E-04 0.000E+00

     total cpu time spent up to now is       14.1 secs

     total energy              =     -27.22029438 Ry
     estimated scf accuracy    <          1.8E-11 Ry

     iteration # 10     ecut=    60.00 Ry     beta= 0.70
     Davidson diagonalization with overlap
     ethr =  1.80E-13,  avg # of iterations =  2.1

     negative rho (up, down):  6.908E-04 0.000E+00

     total cpu time spent up to now is       15.4 secs

     total energy              =     -27.22029438 Ry
     estimated scf accuracy    <          1.4E-11 Ry

     iteration # 11     ecut=    60.00 Ry     beta= 0.70
     Davidson diagonalization with overlap
     ethr =  1.44E-13,  avg # of iterations =  2.0

     negative rho (up, down):  6.908E-04 0.000E+00

     total cpu time spent up to now is       16.7 secs

     End of self-consistent calculation

          k = 0.0000 0.0000 0.0000 (  5847 PWs)   bands (ev):

   -20.2228 -12.4825  -5.6440  -2.7765  -2.7762   0.5799   1.1385   1.8220
     2.0474   3.5863   4.0580   6.1980

          k = 0.0000 0.0962 0.0000 (  5851 PWs)   bands (ev):

   -20.0604 -12.3350  -5.5727  -3.5457  -3.0972   0.7900   1.3410   2.0001
     2.2622   3.7294   4.2757   5.9397

          k = 0.0000 0.1925 0.0000 (  5858 PWs)   bands (ev):

   -19.5755 -11.9089  -5.5359  -5.2139  -3.8421   1.4104   1.9239   2.5147
     2.9011   4.1223   4.9021   5.7848

          k = 0.0000 0.2887 0.0000 (  5892 PWs)   bands (ev):

   -18.7758 -11.2815  -7.5245  -5.2051  -4.6627   2.4252   2.7035   3.3707
     3.9585   4.7205   5.7481   6.0863

          k = 0.0000 0.3849 0.0000 (  5910 PWs)   bands (ev):

   -17.6805 -10.9724  -9.1724  -5.3439  -5.2790   3.2949   3.8472   4.7481
     5.3699   5.5505   6.2939   7.4413

          k = 0.0000 0.4811 0.0000 (  5912 PWs)   bands (ev):

   -16.3527 -12.3621  -8.9102  -5.7824  -5.6684   4.0525   5.2756   5.8464
     6.6645   7.2449   7.3476   8.0035

          k = 0.0000-0.5774 0.0000 (  5940 PWs)   bands (ev):

   -15.3448 -13.5519  -8.4912  -5.9798  -5.9329   4.8674   5.2548   6.2205
     7.7373   7.8456   9.0199   9.0535

          k = 0.0833 0.1443 0.0000 (  5842 PWs)   bands (ev):

   -19.7367 -12.0478  -5.4574  -4.7151  -3.7428   1.2051   1.7361   2.3488
     2.6890   4.0087   4.7016   6.0550

          k = 0.0833 0.2406 0.0000 (  5880 PWs)   bands (ev):

   -19.0942 -11.5134  -6.5379  -5.3439  -4.6338   2.0247   2.4472   3.0309
     3.5381   4.5465   5.5303   6.2581

          k = 0.0833 0.3368 0.0000 (  5902 PWs)   bands (ev):

   -18.1452 -10.9223  -8.4655  -5.7092  -5.0654   3.1253   3.2725   4.1580
     4.8032   5.4053   6.4060   6.8513

          k = 0.0833 0.4330 0.0000 (  5902 PWs)   bands (ev):

   -16.9226 -11.4794  -9.1018  -6.2351  -5.3843   3.8157   4.8231   5.7901
     6.1834   6.5007   7.1098   8.1331

          k = 0.0833 0.5292 0.0000 (  5919 PWs)   bands (ev):

   -15.5838 -13.0783  -8.5487  -6.4662  -5.8828   4.7009   6.0304   6.6581
     6.8469   7.9755   8.4995   8.8136

          k = 0.1667 0.2887 0.0000 (  5908 PWs)   bands (ev):

   -18.3016 -10.9677  -7.8150  -6.2463  -5.0282   3.0342   3.1325   3.9738
     4.5953   5.3635   6.5738   7.3299

          k = 0.1667 0.3849 0.0000 (  5934 PWs)   bands (ev):

   -17.2183 -10.8660  -8.8210  -7.2257  -5.2294   3.8567   4.4076   5.4128
     6.0575   6.6009   7.2977   7.9503

          k = 0.1667 0.4811 0.0000 (  5939 PWs)   bands (ev):

   -15.9074 -12.1518  -8.6458  -7.5936  -5.7024   4.7049   6.0058   6.8194
     7.3503   7.8679   8.3204   8.5171

          k = 0.1667 0.5774 0.0000 (  5938 PWs)   bands (ev):

   -14.9009 -13.2808  -8.5243  -7.4240  -6.0955   5.2325   6.7338   7.2654
     7.7895   8.5089   9.5413   9.7019

          k = 0.2500 0.4330 0.0000 (  5918 PWs)   bands (ev):

   -16.0320 -11.5910  -8.6557  -8.2974  -5.6162   4.8803   5.5994   6.7572
     7.1164   7.7468   8.2636   9.2916

          k = 0.2500 0.5292 0.0000 (  5945 PWs)   bands (ev):

   -14.7235 -12.7875  -9.3970  -7.5361  -6.1880   5.4346   6.3625   7.5248
     8.8198   9.2554   9.7503  10.1558

          k = 0.3333 0.5774 0.0000 (  5928 PWs)   bands (ev):

   -13.5923 -13.5921 -10.0201  -6.8228  -6.8223   5.3092   7.3859   7.3862
     9.5090  10.1044  10.1057  11.6105

          k =-0.0833 0.0481 0.0000 (  5851 PWs)   bands (ev):

   -20.0604 -12.3350  -5.5727  -3.5455  -3.0974   0.7900   1.3410   2.0001
     2.2622   3.7294   4.2757   5.9396

          k =-0.1667 0.0962 0.0000 (  5858 PWs)   bands (ev):

   -19.5755 -11.9089  -5.5359  -5.2137  -3.8423   1.4104   1.9239   2.5147
     2.9011   4.1223   4.9021   5.7847

          k =-0.2500 0.1443 0.0000 (  5892 PWs)   bands (ev):

   -18.7758 -11.2815  -7.5244  -5.2050  -4.6628   2.4252   2.7035   3.3707
     3.9585   4.7204   5.7480   6.0862

          k =-0.3333 0.1925 0.0000 (  5910 PWs)   bands (ev):

   -17.6805 -10.9724  -9.1725  -5.3440  -5.2788   3.2949   3.8472   4.7481
     5.3698   5.5505   6.2939   7.4413

          k =-0.4167 0.2406 0.0000 (  5912 PWs)   bands (ev):

   -16.3527 -12.3619  -8.9103  -5.7825  -5.6682   4.0523   5.2756   5.8464
     6.6645   7.2448   7.3476   8.0036

          k = 0.5000-0.2887 0.0000 (  5940 PWs)   bands (ev):

   -15.3449 -13.5516  -8.4914  -5.9794  -5.9330   4.8670   5.2547   6.2208
     7.7371   7.8457   9.0199   9.0535

          k = 0.1667-0.0000 0.0000 (  5842 PWs)   bands (ev):

   -19.7367 -12.0478  -5.4574  -4.7149  -3.7430   1.2051   1.7361   2.3488
     2.6890   4.0087   4.7016   6.0549

          k =-0.1667 0.1925 0.0000 (  5880 PWs)   bands (ev):

   -19.0942 -11.5134  -6.5379  -5.3439  -4.6339   2.0247   2.4472   3.0309
     3.5381   4.5465   5.5303   6.2580

          k = 0.2500 0.0481 0.0000 (  5880 PWs)   bands (ev):

   -19.0942 -11.5134  -6.5378  -5.3439  -4.6339   2.0247   2.4472   3.0309
     3.5381   4.5465   5.5303   6.2580

          k =-0.2500 0.2406 0.0000 (  5902 PWs)   bands (ev):

   -18.1453 -10.9222  -8.4655  -5.7092  -5.0654   3.1253   3.2725   4.1580
     4.8032   5.4053   6.4059   6.8513

          k = 0.3333 0.0962 0.0000 (  5902 PWs)   bands (ev):

   -18.1453 -10.9222  -8.4654  -5.7093  -5.0653   3.1253   3.2725   4.1580
     4.8032   5.4053   6.4059   6.8513

          k =-0.3333 0.2887 0.0000 (  5902 PWs)   bands (ev):

   -16.9226 -11.4793  -9.1020  -6.2351  -5.3842   3.8156   4.8231   5.7901
     6.1834   6.5007   7.1098   8.1330

          k = 0.4167 0.1443 0.0000 (  5902 PWs)   bands (ev):

   -16.9226 -11.4793  -9.1020  -6.2352  -5.3841   3.8156   4.8231   5.7901
     6.1834   6.5007   7.1098   8.1329

          k =-0.4167 0.3368 0.0000 (  5919 PWs)   bands (ev):

   -15.5839 -13.0781  -8.5489  -6.4663  -5.8826   4.7007   6.0303   6.6582
     6.8469   7.9756   8.4995   8.8136

          k = 0.5000 0.1925 0.0000 (  5919 PWs)   bands (ev):

   -15.5839 -13.0781  -8.5489  -6.4663  -5.8825   4.7007   6.0303   6.6582
     6.8469   7.9756   8.4995   8.8135

          k = 0.3333-0.0000 0.0000 (  5908 PWs)   bands (ev):

   -18.3016 -10.9677  -7.8148  -6.2465  -5.0281   3.0342   3.1325   3.9738
     4.5953   5.3635   6.5738   7.3299

          k =-0.2500 0.3368 0.0000 (  5934 PWs)   bands (ev):

   -17.2183 -10.8659  -8.8210  -7.2257  -5.2294   3.8567   4.4076   5.4128
     6.0575   6.6009   7.2977   7.9501

          k = 0.4167 0.0481 0.0000 (  5934 PWs)   bands (ev):

   -17.2183 -10.8659  -8.8210  -7.2258  -5.2293   3.8567   4.4076   5.4128
     6.0575   6.6009   7.2976   7.9501

          k =-0.3333 0.3849 0.0000 (  5939 PWs)   bands (ev):

   -15.9074 -12.1517  -8.6460  -7.5936  -5.7023   4.7048   6.0058   6.8194
     7.3503   7.8678   8.3204   8.5171

          k = 0.5000 0.0962 0.0000 (  5939 PWs)   bands (ev):

   -15.9074 -12.1517  -8.6460  -7.5937  -5.7022   4.7048   6.0057   6.8193
     7.3503   7.8678   8.3203   8.5171

          k =-0.4167 0.4330 0.0000 (  5938 PWs)   bands (ev):

   -14.9010 -13.2806  -8.5245  -7.4241  -6.0952   5.2322   6.7341   7.2655
     7.7893   8.5088   9.5412   9.7020

          k = 0.5000 0.0000 0.0000 (  5918 PWs)   bands (ev):

   -16.0320 -11.5908  -8.6558  -8.2975  -5.6161   4.8803   5.5994   6.7571
     7.1164   7.7468   8.2636   9.2917

          k =-0.3333 0.4811 0.0000 (  5945 PWs)   bands (ev):

   -14.7236 -12.7874  -9.3971  -7.5362  -6.1879   5.4344   6.3626   7.5249
     8.8198   9.2554   9.7502  10.1558

          k = 0.5833 0.0481 0.0000 (  5945 PWs)   bands (ev):

   -14.7236 -12.7873  -9.3971  -7.5363  -6.1878   5.4344   6.3625   7.5249
     8.8199   9.2554   9.7502  10.1558

     highest occupied, lowest unoccupied level (ev):    -2.7762    0.5799

!    total energy              =     -27.22029438 Ry
     estimated scf accuracy    <          5.0E-14 Ry

     The total energy is the sum of the following terms:
     one-electron contribution =    -298.05757247 Ry
     hartree contribution      =     151.09137851 Ry
     xc contribution           =     -10.76867850 Ry
     ewald contribution        =     130.51457808 Ry

     convergence has been achieved in  11 iterations

     Writing all to output data dir ./C2H2.save/

     init_run     :      0.52s CPU      0.61s WALL (       1 calls)
     electrons    :     14.79s CPU     15.97s WALL (       1 calls)

     Called by init_run:
     wfcinit      :      0.31s CPU      0.37s WALL (       1 calls)
     potinit      :      0.09s CPU      0.10s WALL (       1 calls)
     hinit0       :      0.08s CPU      0.09s WALL (       1 calls)

     Called by electrons:
     c_bands      :     12.84s CPU     13.79s WALL (      11 calls)
     sum_band     :      1.75s CPU      1.95s WALL (      11 calls)
     v_of_rho     :      0.11s CPU      0.13s WALL (      12 calls)
     newd         :      0.08s CPU      0.10s WALL (      12 calls)
     mix_rho      :      0.02s CPU      0.03s WALL (      11 calls)

     Called by c_bands:
     init_us_2    :      0.15s CPU      0.16s WALL (     989 calls)
     init_us_2:cp :      0.15s CPU      0.16s WALL (     989 calls)
     cegterg      :     12.53s CPU     13.46s WALL (     473 calls)

     Called by *egterg:
     cdiaghg      :      0.44s CPU      0.48s WALL (    2299 calls)
     h_psi        :      8.53s CPU      9.28s WALL (    2342 calls)
     s_psi        :      0.45s CPU      0.48s WALL (    2342 calls)
     g_psi        :      0.03s CPU      0.03s WALL (    1826 calls)

     Called by h_psi:
     h_psi:calbec :      0.73s CPU      0.80s WALL (    2342 calls)
     vloc_psi     :      7.31s CPU      7.94s WALL (    2342 calls)
     add_vuspsi   :      0.45s CPU      0.49s WALL (    2342 calls)

     General routines
     calbec       :      0.97s CPU      1.07s WALL (    2815 calls)
     fft          :      0.07s CPU      0.08s WALL (     132 calls)
     ffts         :      0.00s CPU      0.00s WALL (      11 calls)
     fftw         :      8.12s CPU      8.86s WALL (   37368 calls)

     Parallel routines

     PWSCF        :     15.50s CPU     16.89s WALL


   This run was terminated on:   0:40:53  29Mar2023            

=------------------------------------------------------------------------------=
   JOB DONE.
=------------------------------------------------------------------------------=
