
     Program PWSCF v.7.0 starts on 29Mar2023 at  9:44:27 

     This program is part of the open-source Quantum ESPRESSO suite
     for quantum simulation of materials; please cite
         "P. Giannozzi et al., J. Phys.:Condens. Matter 21 395502 (2009);
         "P. Giannozzi et al., J. Phys.:Condens. Matter 29 465901 (2017);
         "P. Giannozzi et al., J. Chem. Phys. 152 154105 (2020);
          URL http://www.quantum-espresso.org", 
     in publications or presentations arising from this work. More details at
     http://www.quantum-espresso.org/quote

     Parallel version (MPI), running on     8 processors

     MPI processes distributed on     1 nodes
     K-points division:     npool     =       8
     669 MiB available memory on the printing compute node when the environment starts

     Waiting for input...
     Reading input from standard input

     Current dimensions of program PWSCF are:
     Max number of different atomic species (ntypx) = 10
     Max number of k-points (npk) =  40000
     Max angular momentum in pseudopotentials (lmaxx) =  4

     Atomic positions and unit cell read from directory:
     ./C2H2.save/
     Atomic positions from file used, from input discarded


     Subspace diagonalization in iterative solution of the eigenvalue problem:
     a serial algorithm will be used


     G-vector sticks info
     --------------------
     sticks:   dense  smooth     PW     G-vecs:    dense   smooth      PW
     Sum         379     379    163                47317    47317   13365

     Using Slab Decomposition



     bravais-lattice index     =           12
     lattice parameter (alat)  =       4.7961  a.u.
     unit-cell volume          =     752.9055 (a.u.)^3
     number of atoms/cell      =            4
     number of atomic types    =            2
     number of electrons       =        10.00
     number of Kohn-Sham states=           12
     kinetic-energy cutoff     =      60.0000  Ry
     charge density cutoff     =     240.0000  Ry
     Exchange-correlation= PBE
                           (   1   4   3   4   0   0   0)

     celldm(1)=   4.796125  celldm(2)=   1.000000  celldm(3)=   7.880221
     celldm(4)=  -0.500000  celldm(5)=   0.000000  celldm(6)=   0.000000

     crystal axes: (cart. coord. in units of alat)
               a(1) = (   1.000000   0.000000   0.000000 )  
               a(2) = (  -0.500000   0.866025   0.000000 )  
               a(3) = (   0.000000   0.000000   7.880221 )  

     reciprocal axes: (cart. coord. in units 2 pi/alat)
               b(1) = (  1.000000  0.577350 -0.000000 )  
               b(2) = (  0.000000  1.154701  0.000000 )  
               b(3) = (  0.000000 -0.000000  0.126900 )  


     PseudoPot. # 1 for C  read from file:
     ./C.pbe-n-rrkjus_psl.1.0.0.UPF
     MD5 check sum: 1fdd950c42eb37d8afe3dd2f8d12311e
     Pseudo is Ultrasoft + core correction, Zval =  4.0
     Generated using &quot;atomic&quot; code by A. Dal Corso  v.6.3MaX
     Using radial grid of 1073 points,  4 beta functions with: 
                l(1) =   0
                l(2) =   0
                l(3) =   1
                l(4) =   1
     Q(r) pseudized with 0 coefficients 


     PseudoPot. # 2 for H  read from file:
     ./H.pbe-rrkjus_psl.1.0.0.UPF
     MD5 check sum: 3f4114867bd07edc7f1424d066fc1888
     Pseudo is Ultrasoft, Zval =  1.0
     Generated using &quot;atomic&quot; code by A. Dal Corso  v.6.3MaX
     Using radial grid of  929 points,  2 beta functions with: 
                l(1) =   0
                l(2) =   0
     Q(r) pseudized with 0 coefficients 


     atomic species   valence    mass     pseudopotential
        C              4.00    12.01100     C ( 1.00)
        H              1.00     1.00790     H ( 1.00)

      2 Sym. Ops. (no inversion) found



   Cartesian axes

     site n.     atom                  positions (alat units)
         1           C   tau(   1) = (  -0.0000001   0.5774215   3.9401877  )
         2           C   tau(   2) = (   0.5000001   0.2887421   4.1212739  )
         3           H   tau(   3) = (  -0.0000001   0.5774352   3.5021743  )
         4           H   tau(   4) = (   0.5000001   0.2887283   4.5592956  )

     number of k points=   144

     Number of k-points >= 100: set verbosity='high' to print them.

     Dense  grid:    47317 G-vectors     FFT dimensions: (  24,  24, 192)

     Estimated max dynamical RAM per process >      25.71 MB

     Estimated total dynamical RAM >     205.70 MB

     Check: negative core charge=   -0.000011

     The potential is recalculated from file :
     ./C2H2.save/charge-density


     negative rho (up, down):  6.908E-04 0.000E+00
     Starting wfcs are   10 randomized atomic wfcs +    2 random wfcs

     Band Structure Calculation
     Davidson diagonalization with overlap
     c_bands:  1 eigenvalues not converged

     ethr =  1.00E-13,  avg # of iterations = 74.3

     total cpu time spent up to now is       60.4 secs

     End of band structure calculation

     Number of k-points >= 100: set verbosity='high' to print the bands.

     Writing all to output data dir ./C2H2.save/

     init_run     :      0.38s CPU      0.43s WALL (       1 calls)
     electrons    :     59.01s CPU     59.80s WALL (       1 calls)

     Called by init_run:
     wfcinit      :      0.00s CPU      0.00s WALL (       1 calls)
     potinit      :      0.09s CPU      0.12s WALL (       1 calls)
     hinit0       :      0.25s CPU      0.25s WALL (       1 calls)

     Called by electrons:
     c_bands      :     59.01s CPU     59.80s WALL (       1 calls)
     v_of_rho     :      0.05s CPU      0.08s WALL (       1 calls)
     newd         :      0.01s CPU      0.02s WALL (       1 calls)

     Called by c_bands:
     init_us_2    :      0.02s CPU      0.02s WALL (      18 calls)
     init_us_2:cp :      0.02s CPU      0.02s WALL (      18 calls)
     cegterg      :     52.49s CPU     53.19s WALL (      73 calls)

     Called by *egterg:
     cdiaghg      :      0.29s CPU      0.29s WALL (    1345 calls)
     h_psi        :     32.90s CPU     33.39s WALL (    1418 calls)
     s_psi        :      2.52s CPU      2.59s WALL (    1418 calls)
     g_psi        :      0.21s CPU      0.22s WALL (    1327 calls)

     Called by h_psi:
     h_psi:calbec :      2.67s CPU      2.71s WALL (    1418 calls)
     vloc_psi     :     27.56s CPU     27.98s WALL (    1418 calls)
     add_vuspsi   :      2.47s CPU      2.49s WALL (    1418 calls)

     General routines
     calbec       :      2.66s CPU      2.70s WALL (    1418 calls)
     fft          :      0.02s CPU      0.02s WALL (      12 calls)
     fftw         :     23.92s CPU     24.29s WALL (   18212 calls)
     davcio       :      0.01s CPU      0.02s WALL (      36 calls)

     Parallel routines

     PWSCF        :     59.60s CPU   1m 0.53s WALL


   This run was terminated on:   9:45:28  29Mar2023            

=------------------------------------------------------------------------------=
   JOB DONE.
=------------------------------------------------------------------------------=
