
     Program PHONON v.7.0 starts on 29Mar2023 at  0:46: 8 

     This program is part of the open-source Quantum ESPRESSO suite
     for quantum simulation of materials; please cite
         "P. Giannozzi et al., J. Phys.:Condens. Matter 21 395502 (2009);
         "P. Giannozzi et al., J. Phys.:Condens. Matter 29 465901 (2017);
         "P. Giannozzi et al., J. Chem. Phys. 152 154105 (2020);
          URL http://www.quantum-espresso.org", 
     in publications or presentations arising from this work. More details at
     http://www.quantum-espresso.org/quote

     Parallel version (MPI), running on     8 processors

     MPI processes distributed on     1 nodes
     R & G space division:  proc/nbgrp/npool/nimage =       8
     4158 MiB available memory on the printing compute node when the environment starts

     Waiting for input...
     Reading input from standard input

     Reading xml data from directory:

     ./C2H2.save/

     IMPORTANT: XC functional enforced from input :
     Exchange-correlation= PBE
                           (   1   4   3   4   0   0   0)
     Any further DFT definition will be discarded
     Please, verify this is what you really want


     Parallelization info
     --------------------
     sticks:   dense  smooth     PW     G-vecs:    dense   smooth      PW
     Min          47      47     15                 5907     5907    1023
     Max          48      48     16                 5932     5932    1044
     Sum         379     379    121                47317    47317    8263

     Using Slab Decomposition


     Check: negative core charge=   -0.000011

     negative rho (up, down):  6.908E-04 0.000E+00
     Reading collected, re-writing distributed wavefunctions


     Dynamical matrices for (12,12, 1)  uniform grid of q-points
     (  43 q-points):
       N         xq(1)         xq(2)         xq(3) 
       1   0.000000000   0.000000000   0.000000000
       2   0.000000000   0.096225045   0.000000000
       3   0.000000000   0.192450090   0.000000000
       4   0.000000000   0.288675135   0.000000000
       5   0.000000000   0.384900179   0.000000000
       6   0.000000000   0.481125224   0.000000000
       7   0.000000000  -0.577350269   0.000000000
       8   0.083333333   0.048112522   0.000000000
       9   0.083333333   0.144337567   0.000000000
      10   0.083333333   0.240562612   0.000000000
      11   0.083333333   0.336787657   0.000000000
      12   0.083333333   0.433012702   0.000000000
      13   0.083333333   0.529237747   0.000000000
      14   0.166666667   0.096225045   0.000000000
      15   0.166666667   0.192450090   0.000000000
      16   0.166666667   0.288675135   0.000000000
      17   0.166666667   0.384900179   0.000000000
      18   0.166666667   0.481125224   0.000000000
      19   0.166666667   0.577350269   0.000000000
      20   0.166666667  -0.000000000   0.000000000
      21   0.250000000   0.144337567   0.000000000
      22   0.250000000   0.240562612   0.000000000
      23   0.250000000   0.336787657   0.000000000
      24   0.250000000   0.433012702   0.000000000
      25   0.250000000   0.529237747   0.000000000
      26   0.250000000  -0.048112522   0.000000000
      27   0.333333333   0.192450090   0.000000000
      28   0.333333333   0.288675135   0.000000000
      29   0.333333333   0.384900179   0.000000000
      30   0.333333333   0.481125224   0.000000000
      31   0.333333333   0.577350269   0.000000000
      32   0.333333333  -0.096225045   0.000000000
      33   0.333333333   0.000000000   0.000000000
      34   0.416666667   0.240562612   0.000000000
      35   0.416666667   0.336787657   0.000000000
      36   0.416666667   0.433012702   0.000000000
      37   0.416666667   0.529237747   0.000000000
      38   0.416666667  -0.144337567   0.000000000
      39   0.416666667  -0.048112522   0.000000000
      40  -0.500000000  -0.288675135   0.000000000
      41  -0.500000000  -0.192450090   0.000000000
      42  -0.500000000  -0.096225045   0.000000000
      43  -0.500000000   0.000000000   0.000000000

     Saving dvscf to file. Distribute only q points, not irreducible represetations.

     Calculation of q =    0.0000000   0.0000000   0.0000000

     phonons of C2H2 on a grid! title line                                      

     bravais-lattice index     =           12
     lattice parameter (alat)  =       4.7961  a.u.
     unit-cell volume          =     752.9055 (a.u.)^3
     number of atoms/cell      =            4
     number of atomic types    =            2
     kinetic-energy cut-off    =      60.0000  Ry
     charge density cut-off    =     240.0000  Ry
     convergence threshold     =      1.0E-14
     beta                      =       0.7000
     number of iterations used =            4
     Exchange-correlation= PBE
                           (   1   4   3   4   0   0   0)


     celldm(1)=    4.79612  celldm(2)=    1.00000  celldm(3)=    7.88022
     celldm(4)=   -0.50000  celldm(5)=    0.00000  celldm(6)=    0.00000

     crystal axes: (cart. coord. in units of alat)
               a(1) = (  1.0000  0.0000  0.0000 )  
               a(2) = ( -0.5000  0.8660  0.0000 )  
               a(3) = (  0.0000  0.0000  7.8802 )  

     reciprocal axes: (cart. coord. in units 2 pi/alat)
               b(1) = (  1.0000  0.5774 -0.0000 )  
               b(2) = (  0.0000  1.1547  0.0000 )  
               b(3) = (  0.0000 -0.0000  0.1269 )  


     Atoms inside the unit cell: 

     Cartesian axes

     site n.  atom      mass           positions (alat units)
        1     C   12.0110   tau(    1) = (   -0.00000    0.57742    3.94019  )
        2     C   12.0110   tau(    2) = (    0.50000    0.28874    4.12127  )
        3     H    1.0079   tau(    3) = (   -0.00000    0.57744    3.50217  )
        4     H    1.0079   tau(    4) = (    0.50000    0.28873    4.55930  )

     Computing dynamical matrix for 
                    q = (   0.0000000   0.0000000   0.0000000 )

      3 Sym.Ops. (with q -> -q+G )


     G cutoff =  139.8403  (   5920 G-vectors)     FFT grid: ( 24, 24,192)
     number of k points=    43

     PseudoPot. # 1 for C  read from file:
     ./C.pbe-n-rrkjus_psl.1.0.0.UPF
     MD5 check sum: 1fdd950c42eb37d8afe3dd2f8d12311e
     Pseudo is Ultrasoft + core correction, Zval =  4.0
     Generated using &quot;atomic&quot; code by A. Dal Corso  v.6.3MaX
     Using radial grid of 1073 points,  4 beta functions with: 
                l(1) =   0
                l(2) =   0
                l(3) =   1
                l(4) =   1
     Q(r) pseudized with 0 coefficients 


     PseudoPot. # 2 for H  read from file:
     ./H.pbe-rrkjus_psl.1.0.0.UPF
     MD5 check sum: 3f4114867bd07edc7f1424d066fc1888
     Pseudo is Ultrasoft, Zval =  1.0
     Generated using &quot;atomic&quot; code by A. Dal Corso  v.6.3MaX
     Using radial grid of  929 points,  2 beta functions with: 
                l(1) =   0
                l(2) =   0
     Q(r) pseudized with 0 coefficients 


     Mode symmetry, C_s (m)     point group:


     Electric field:
     Dielectric constant
     Born effective charges in two ways 


     Atomic displacements:
     There are   12 irreducible representations

     Representation     1      1 modes -  To be done

     Representation     2      1 modes -  To be done

     Representation     3      1 modes -  To be done

     Representation     4      1 modes -  To be done

     Representation     5      1 modes -  To be done

     Representation     6      1 modes -  To be done

     Representation     7      1 modes -  To be done

     Representation     8      1 modes -  To be done

     Representation     9      1 modes -  To be done

     Representation    10      1 modes -  To be done

     Representation    11      1 modes -  To be done

     Representation    12      1 modes -  To be done



     Alpha used in Ewald sum =   2.5000

     negative rho (up, down):  6.908E-04 0.000E+00
     PHONON       :      3.92s CPU      4.36s WALL


     Electric Fields Calculation

      iter #   1 total cpu time :    36.7 secs   av.it.:   6.0
      thresh= 1.000E-02 alpha_mix =  0.700 |ddv_scf|^2 =  1.508E-04

      iter #   2 total cpu time :    41.8 secs   av.it.:   6.8
      thresh= 1.228E-03 alpha_mix =  0.700 |ddv_scf|^2 =  3.079E-04

      iter #   3 total cpu time :    45.3 secs   av.it.:   4.4
      thresh= 1.755E-03 alpha_mix =  0.700 |ddv_scf|^2 =  7.837E-07

      iter #   4 total cpu time :    49.8 secs   av.it.:   6.9
      thresh= 8.853E-05 alpha_mix =  0.700 |ddv_scf|^2 =  3.813E-08

      iter #   5 total cpu time :    54.3 secs   av.it.:   6.9
      thresh= 1.953E-05 alpha_mix =  0.700 |ddv_scf|^2 =  7.792E-10

      iter #   6 total cpu time :    59.1 secs   av.it.:   7.7
      thresh= 2.791E-06 alpha_mix =  0.700 |ddv_scf|^2 =  1.316E-12

      iter #   7 total cpu time :    64.4 secs   av.it.:   9.1
      thresh= 1.147E-07 alpha_mix =  0.700 |ddv_scf|^2 =  8.539E-13

      iter #   8 total cpu time :    69.5 secs   av.it.:   8.3
      thresh= 9.241E-08 alpha_mix =  0.700 |ddv_scf|^2 =  1.474E-13

      iter #   9 total cpu time :    74.4 secs   av.it.:   8.0
      thresh= 3.839E-08 alpha_mix =  0.700 |ddv_scf|^2 =  2.534E-15

     End of electric fields calculation

          Dielectric constant in cartesian axis 

          (       1.583379293       0.000000000       0.000000000 )
          (       0.000000000       1.583381687      -0.000009611 )
          (       0.000000000      -0.000002205       1.201168548 )

          Effective charges (d Force / dE) in cartesian axis without acoustic sum rule applied (asr)

           atom      1   C  Mean Z*:        0.03589
      Ex  (       -0.00875        0.00000        0.00000 )
      Ey  (        0.00000       -0.00873        0.00023 )
      Ez  (        0.00000        0.00009        0.12516 )
           atom      2   C  Mean Z*:        0.03643
      Ex  (       -0.00849        0.00000        0.00000 )
      Ey  (        0.00000       -0.00850        0.00023 )
      Ez  (        0.00000       -0.00013        0.12627 )
           atom      3   H  Mean Z*:       -0.03340
      Ex  (        0.01192       -0.00000        0.00000 )
      Ey  (        0.00000        0.01193        0.00002 )
      Ez  (        0.00000       -0.00000       -0.12405 )
           atom      4   H  Mean Z*:       -0.03335
      Ex  (        0.01191        0.00000        0.00000 )
      Ey  (        0.00000        0.01192        0.00002 )
      Ez  (        0.00000        0.00002       -0.12388 )

          Effective charges Sum: Mean:        0.00557
              0.00659        0.00000        0.00000
             -0.00000        0.00661       -0.00002
              0.00000        0.00051        0.00349

          Effective charges (d Force / dE) in cartesian axis with asr applied: 
           atom      1   C  Mean Z*:        0.03450
      E*x (       -0.01040        0.00000        0.00000 )
      E*y (        0.00000       -0.01039        0.00010 )
      E*z (        0.00000        0.00010        0.12428 )
           atom      2   C  Mean Z*:        0.03503
      E*x (       -0.01014        0.00000        0.00000 )
      E*y (        0.00000       -0.01016        0.00010 )
      E*z (        0.00000       -0.00013        0.12540 )
           atom      3   H  Mean Z*:       -0.03479
      E*x (        0.01027       -0.00000        0.00000 )
      E*y (        0.00000        0.01028       -0.00010 )
      E*z (        0.00000        0.00000       -0.12492 )
           atom      4   H  Mean Z*:       -0.03474
      E*x (        0.01026        0.00000        0.00000 )
      E*y (        0.00000        0.01027       -0.00010 )
      E*z (        0.00000        0.00003       -0.12476 )


     Representation #   1 mode #   1

     Self-consistent Calculation

      iter #   1 total cpu time :    88.6 secs   av.it.:   4.0
      thresh= 1.000E-02 alpha_mix =  0.700 |ddv_scf|^2 =  1.698E-08

      iter #   2 total cpu time :    91.0 secs   av.it.:   9.7
      thresh= 1.303E-05 alpha_mix =  0.700 |ddv_scf|^2 =  1.172E-08

      iter #   3 total cpu time :    92.8 secs   av.it.:   8.5
      thresh= 1.082E-05 alpha_mix =  0.700 |ddv_scf|^2 =  1.616E-09

      iter #   4 total cpu time :    94.6 secs   av.it.:   8.7
      thresh= 4.020E-06 alpha_mix =  0.700 |ddv_scf|^2 =  1.950E-10

      iter #   5 total cpu time :    96.6 secs   av.it.:   9.0
      thresh= 1.396E-06 alpha_mix =  0.700 |ddv_scf|^2 =  3.206E-12

      iter #   6 total cpu time :    98.5 secs   av.it.:   9.2
      thresh= 1.790E-07 alpha_mix =  0.700 |ddv_scf|^2 =  5.859E-14

      iter #   7 total cpu time :   100.5 secs   av.it.:   9.8
      thresh= 2.420E-08 alpha_mix =  0.700 |ddv_scf|^2 =  9.905E-15

     End of self-consistent calculation

     Convergence has been achieved 


     Representation #   2 mode #   2

     Self-consistent Calculation

      iter #   1 total cpu time :   102.6 secs   av.it.:   4.0
      thresh= 1.000E-02 alpha_mix =  0.700 |ddv_scf|^2 =  6.671E-09

      iter #   2 total cpu time :   104.6 secs   av.it.:   9.8
      thresh= 8.168E-06 alpha_mix =  0.700 |ddv_scf|^2 =  7.765E-10

      iter #   3 total cpu time :   106.7 secs   av.it.:   9.3
      thresh= 2.787E-06 alpha_mix =  0.700 |ddv_scf|^2 =  9.241E-10

      iter #   4 total cpu time :   108.3 secs   av.it.:   8.2
      thresh= 3.040E-06 alpha_mix =  0.700 |ddv_scf|^2 =  1.832E-11

      iter #   5 total cpu time :   110.2 secs   av.it.:   9.2
      thresh= 4.281E-07 alpha_mix =  0.700 |ddv_scf|^2 =  1.660E-12

      iter #   6 total cpu time :   112.1 secs   av.it.:   9.3
      thresh= 1.288E-07 alpha_mix =  0.700 |ddv_scf|^2 =  5.293E-15

     End of self-consistent calculation

     Convergence has been achieved 


     Representation #   3 mode #   3

     Self-consistent Calculation

      iter #   1 total cpu time :   114.7 secs   av.it.:   6.0
      thresh= 1.000E-02 alpha_mix =  0.700 |ddv_scf|^2 =  6.768E-05

      iter #   2 total cpu time :   116.5 secs   av.it.:   8.7
      thresh= 8.227E-04 alpha_mix =  0.700 |ddv_scf|^2 =  1.639E-04

      iter #   3 total cpu time :   118.1 secs   av.it.:   7.8
      thresh= 1.280E-03 alpha_mix =  0.700 |ddv_scf|^2 =  4.277E-07

      iter #   4 total cpu time :   119.9 secs   av.it.:   8.5
      thresh= 6.540E-05 alpha_mix =  0.700 |ddv_scf|^2 =  7.846E-08

      iter #   5 total cpu time :   121.6 secs   av.it.:   8.7
      thresh= 2.801E-05 alpha_mix =  0.700 |ddv_scf|^2 =  4.901E-09

      iter #   6 total cpu time :   123.2 secs   av.it.:   7.9
      thresh= 7.001E-06 alpha_mix =  0.700 |ddv_scf|^2 =  2.338E-12

      iter #   7 total cpu time :   125.1 secs   av.it.:   9.7
      thresh= 1.529E-07 alpha_mix =  0.700 |ddv_scf|^2 =  5.282E-13

      iter #   8 total cpu time :   127.0 secs   av.it.:   9.3
      thresh= 7.268E-08 alpha_mix =  0.700 |ddv_scf|^2 =  7.488E-14

      iter #   9 total cpu time :   128.7 secs   av.it.:   8.4
      thresh= 2.736E-08 alpha_mix =  0.700 |ddv_scf|^2 =  3.591E-16

     End of self-consistent calculation

     Convergence has been achieved 


     Representation #   4 mode #   4

     Self-consistent Calculation

      iter #   1 total cpu time :   131.0 secs   av.it.:   4.9
      thresh= 1.000E-02 alpha_mix =  0.700 |ddv_scf|^2 =  1.935E-06

      iter #   2 total cpu time :   132.8 secs   av.it.:   9.1
      thresh= 1.391E-04 alpha_mix =  0.700 |ddv_scf|^2 =  2.005E-06

      iter #   3 total cpu time :   134.7 secs   av.it.:   8.2
      thresh= 1.416E-04 alpha_mix =  0.700 |ddv_scf|^2 =  9.584E-08

      iter #   4 total cpu time :   136.4 secs   av.it.:   8.4
      thresh= 3.096E-05 alpha_mix =  0.700 |ddv_scf|^2 =  2.671E-09

      iter #   5 total cpu time :   138.2 secs   av.it.:   8.9
      thresh= 5.168E-06 alpha_mix =  0.700 |ddv_scf|^2 =  4.427E-10

      iter #   6 total cpu time :   140.0 secs   av.it.:   8.9
      thresh= 2.104E-06 alpha_mix =  0.700 |ddv_scf|^2 =  8.776E-12

      iter #   7 total cpu time :   141.8 secs   av.it.:   9.6
      thresh= 2.962E-07 alpha_mix =  0.700 |ddv_scf|^2 =  1.720E-13

      iter #   8 total cpu time :   143.7 secs   av.it.:   9.1
      thresh= 4.148E-08 alpha_mix =  0.700 |ddv_scf|^2 =  1.234E-14

      iter #   9 total cpu time :   145.4 secs   av.it.:   8.5
      thresh= 1.111E-08 alpha_mix =  0.700 |ddv_scf|^2 =  2.731E-16

     End of self-consistent calculation

     Convergence has been achieved 


     Representation #   5 mode #   5

     Self-consistent Calculation

      iter #   1 total cpu time :   147.8 secs   av.it.:   6.0
      thresh= 1.000E-02 alpha_mix =  0.700 |ddv_scf|^2 =  6.317E-05

      iter #   2 total cpu time :   149.6 secs   av.it.:   8.8
      thresh= 7.948E-04 alpha_mix =  0.700 |ddv_scf|^2 =  1.635E-04

      iter #   3 total cpu time :   151.5 secs   av.it.:   7.8
      thresh= 1.279E-03 alpha_mix =  0.700 |ddv_scf|^2 =  2.546E-07

      iter #   4 total cpu time :   153.4 secs   av.it.:   8.8
      thresh= 5.046E-05 alpha_mix =  0.700 |ddv_scf|^2 =  6.375E-08

      iter #   5 total cpu time :   155.5 secs   av.it.:   8.7
      thresh= 2.525E-05 alpha_mix =  0.700 |ddv_scf|^2 =  5.473E-09

      iter #   6 total cpu time :   157.3 secs   av.it.:   7.9
      thresh= 7.398E-06 alpha_mix =  0.700 |ddv_scf|^2 =  2.548E-12

      iter #   7 total cpu time :   159.3 secs   av.it.:   9.7
      thresh= 1.596E-07 alpha_mix =  0.700 |ddv_scf|^2 =  8.760E-13

      iter #   8 total cpu time :   161.2 secs   av.it.:   9.4
      thresh= 9.360E-08 alpha_mix =  0.700 |ddv_scf|^2 =  1.340E-13

      iter #   9 total cpu time :   163.0 secs   av.it.:   8.3
      thresh= 3.661E-08 alpha_mix =  0.700 |ddv_scf|^2 =  2.352E-15

     End of self-consistent calculation

     Convergence has been achieved 


     Representation #   6 mode #   6

     Self-consistent Calculation

      iter #   1 total cpu time :   165.2 secs   av.it.:   4.9
      thresh= 1.000E-02 alpha_mix =  0.700 |ddv_scf|^2 =  1.883E-06

      iter #   2 total cpu time :   167.1 secs   av.it.:   9.1
      thresh= 1.372E-04 alpha_mix =  0.700 |ddv_scf|^2 =  1.961E-06

      iter #   3 total cpu time :   168.8 secs   av.it.:   8.2
      thresh= 1.401E-04 alpha_mix =  0.700 |ddv_scf|^2 =  9.574E-08

      iter #   4 total cpu time :   170.5 secs   av.it.:   8.4
      thresh= 3.094E-05 alpha_mix =  0.700 |ddv_scf|^2 =  2.547E-09

      iter #   5 total cpu time :   172.3 secs   av.it.:   8.8
      thresh= 5.047E-06 alpha_mix =  0.700 |ddv_scf|^2 =  3.182E-10

      iter #   6 total cpu time :   174.0 secs   av.it.:   8.7
      thresh= 1.784E-06 alpha_mix =  0.700 |ddv_scf|^2 =  9.276E-12

      iter #   7 total cpu time :   175.8 secs   av.it.:   9.4
      thresh= 3.046E-07 alpha_mix =  0.700 |ddv_scf|^2 =  1.804E-13

      iter #   8 total cpu time :   177.7 secs   av.it.:   9.0
      thresh= 4.247E-08 alpha_mix =  0.700 |ddv_scf|^2 =  1.300E-14

      iter #   9 total cpu time :   179.4 secs   av.it.:   8.4
      thresh= 1.140E-08 alpha_mix =  0.700 |ddv_scf|^2 =  1.936E-16

     End of self-consistent calculation

     Convergence has been achieved 


     Representation #   7 mode #   7

     Self-consistent Calculation

      iter #   1 total cpu time :   181.6 secs   av.it.:   5.3
      thresh= 1.000E-02 alpha_mix =  0.700 |ddv_scf|^2 =  4.572E-06

      iter #   2 total cpu time :   183.2 secs   av.it.:   8.1
      thresh= 2.138E-04 alpha_mix =  0.700 |ddv_scf|^2 =  4.667E-07

      iter #   3 total cpu time :   184.8 secs   av.it.:   8.1
      thresh= 6.831E-05 alpha_mix =  0.700 |ddv_scf|^2 =  3.124E-07

      iter #   4 total cpu time :   186.4 secs   av.it.:   7.8
      thresh= 5.590E-05 alpha_mix =  0.700 |ddv_scf|^2 =  2.933E-11

      iter #   5 total cpu time :   188.3 secs   av.it.:   9.7
      thresh= 5.416E-07 alpha_mix =  0.700 |ddv_scf|^2 =  7.406E-12

      iter #   6 total cpu time :   190.1 secs   av.it.:   9.1
      thresh= 2.721E-07 alpha_mix =  0.700 |ddv_scf|^2 =  6.273E-14

      iter #   7 total cpu time :   191.9 secs   av.it.:   9.3
      thresh= 2.505E-08 alpha_mix =  0.700 |ddv_scf|^2 =  3.191E-15

     End of self-consistent calculation

     Convergence has been achieved 


     Representation #   8 mode #   8

     Self-consistent Calculation

      iter #   1 total cpu time :   194.2 secs   av.it.:   5.3
      thresh= 1.000E-02 alpha_mix =  0.700 |ddv_scf|^2 =  2.793E-06

      iter #   2 total cpu time :   195.9 secs   av.it.:   8.3
      thresh= 1.671E-04 alpha_mix =  0.700 |ddv_scf|^2 =  2.593E-07

      iter #   3 total cpu time :   197.6 secs   av.it.:   7.9
      thresh= 5.092E-05 alpha_mix =  0.700 |ddv_scf|^2 =  8.130E-08

      iter #   4 total cpu time :   199.2 secs   av.it.:   7.9
      thresh= 2.851E-05 alpha_mix =  0.700 |ddv_scf|^2 =  1.851E-10

      iter #   5 total cpu time :   200.9 secs   av.it.:   8.8
      thresh= 1.361E-06 alpha_mix =  0.700 |ddv_scf|^2 =  3.101E-12

      iter #   6 total cpu time :   202.7 secs   av.it.:   9.0
      thresh= 1.761E-07 alpha_mix =  0.700 |ddv_scf|^2 =  1.686E-13

      iter #   7 total cpu time :   204.7 secs   av.it.:   9.2
      thresh= 4.106E-08 alpha_mix =  0.700 |ddv_scf|^2 =  2.583E-15

     End of self-consistent calculation

     Convergence has been achieved 


     Representation #   9 mode #   9

     Self-consistent Calculation

      iter #   1 total cpu time :   207.4 secs   av.it.:   5.3
      thresh= 1.000E-02 alpha_mix =  0.700 |ddv_scf|^2 =  2.662E-06

      iter #   2 total cpu time :   209.5 secs   av.it.:   8.2
      thresh= 1.631E-04 alpha_mix =  0.700 |ddv_scf|^2 =  2.354E-07

      iter #   3 total cpu time :   211.2 secs   av.it.:   7.0
      thresh= 4.852E-05 alpha_mix =  0.700 |ddv_scf|^2 =  2.304E-11

      iter #   4 total cpu time :   213.9 secs   av.it.:   9.6
      thresh= 4.800E-07 alpha_mix =  0.700 |ddv_scf|^2 =  7.836E-13

      iter #   5 total cpu time :   216.0 secs   av.it.:   8.5
      thresh= 8.852E-08 alpha_mix =  0.700 |ddv_scf|^2 =  1.755E-15

     End of self-consistent calculation

     Convergence has been achieved 


     Representation #  10 mode #  10

     Self-consistent Calculation

      iter #   1 total cpu time :   218.4 secs   av.it.:   4.0
      thresh= 1.000E-02 alpha_mix =  0.700 |ddv_scf|^2 =  5.937E-09

      iter #   2 total cpu time :   220.3 secs   av.it.:   9.7
      thresh= 7.705E-06 alpha_mix =  0.700 |ddv_scf|^2 =  4.007E-10

      iter #   3 total cpu time :   222.3 secs   av.it.:   9.2
      thresh= 2.002E-06 alpha_mix =  0.700 |ddv_scf|^2 =  3.995E-12

      iter #   4 total cpu time :   224.3 secs   av.it.:   9.1
      thresh= 1.999E-07 alpha_mix =  0.700 |ddv_scf|^2 =  2.724E-14

      iter #   5 total cpu time :   226.6 secs   av.it.:   9.8
      thresh= 1.650E-08 alpha_mix =  0.700 |ddv_scf|^2 =  4.055E-16

     End of self-consistent calculation

     Convergence has been achieved 


     Representation #  11 mode #  11

     Self-consistent Calculation

      iter #   1 total cpu time :   228.9 secs   av.it.:   4.0
      thresh= 1.000E-02 alpha_mix =  0.700 |ddv_scf|^2 =  6.715E-09

      iter #   2 total cpu time :   230.8 secs   av.it.:   9.5
      thresh= 8.195E-06 alpha_mix =  0.700 |ddv_scf|^2 =  4.721E-10

      iter #   3 total cpu time :   232.6 secs   av.it.:   9.1
      thresh= 2.173E-06 alpha_mix =  0.700 |ddv_scf|^2 =  3.282E-12

      iter #   4 total cpu time :   234.7 secs   av.it.:   9.2
      thresh= 1.812E-07 alpha_mix =  0.700 |ddv_scf|^2 =  2.447E-14

      iter #   5 total cpu time :   237.1 secs   av.it.:   9.9
      thresh= 1.564E-08 alpha_mix =  0.700 |ddv_scf|^2 =  4.115E-16

     End of self-consistent calculation

     Convergence has been achieved 


     Representation #  12 mode #  12

     Self-consistent Calculation

      iter #   1 total cpu time :   240.4 secs   av.it.:   5.3
      thresh= 1.000E-02 alpha_mix =  0.700 |ddv_scf|^2 =  1.237E-05

      iter #   2 total cpu time :   242.3 secs   av.it.:   7.4
      thresh= 3.517E-04 alpha_mix =  0.700 |ddv_scf|^2 =  1.135E-06

      iter #   3 total cpu time :   243.6 secs   av.it.:   6.1
      thresh= 1.065E-04 alpha_mix =  0.700 |ddv_scf|^2 =  4.288E-11

      iter #   4 total cpu time :   246.1 secs   av.it.:   9.4
      thresh= 6.548E-07 alpha_mix =  0.700 |ddv_scf|^2 =  1.371E-13

      iter #   5 total cpu time :   247.9 secs   av.it.:   9.3
      thresh= 3.703E-08 alpha_mix =  0.700 |ddv_scf|^2 =  3.249E-15

     End of self-consistent calculation

     Convergence has been achieved 

     Number of q in the star =    1
     List of q in the star:
          1   0.000000000   0.000000000   0.000000000

          Dielectric constant in cartesian axis 

          (       1.583379293       0.000000000       0.000000000 )
          (       0.000000000       1.583381687      -0.000009611 )
          (       0.000000000      -0.000002205       1.201168548 )

          Effective charges (d Force / dE) in cartesian axis without acoustic sum rule applied (asr)

           atom      1   C  Mean Z*:        0.03589
      Ex  (       -0.00875        0.00000        0.00000 )
      Ey  (        0.00000       -0.00873        0.00023 )
      Ez  (        0.00000        0.00009        0.12516 )
           atom      2   C  Mean Z*:        0.03643
      Ex  (       -0.00849        0.00000        0.00000 )
      Ey  (        0.00000       -0.00850        0.00023 )
      Ez  (        0.00000       -0.00013        0.12627 )
           atom      3   H  Mean Z*:       -0.03340
      Ex  (        0.01192       -0.00000        0.00000 )
      Ey  (        0.00000        0.01193        0.00002 )
      Ez  (        0.00000       -0.00000       -0.12405 )
           atom      4   H  Mean Z*:       -0.03335
      Ex  (        0.01191        0.00000        0.00000 )
      Ey  (        0.00000        0.01192        0.00002 )
      Ez  (        0.00000        0.00002       -0.12388 )

          Effective charges Sum: Mean:        0.00557
              0.00659        0.00000        0.00000
             -0.00000        0.00661       -0.00002
              0.00000        0.00051        0.00349

          Effective charges (d Force / dE) in cartesian axis with asr applied: 
           atom      1   C  Mean Z*:        0.03450
      E*x (       -0.01040        0.00000        0.00000 )
      E*y (        0.00000       -0.01039        0.00010 )
      E*z (        0.00000        0.00010        0.12428 )
           atom      2   C  Mean Z*:        0.03503
      E*x (       -0.01014        0.00000        0.00000 )
      E*y (        0.00000       -0.01016        0.00010 )
      E*z (        0.00000       -0.00013        0.12540 )
           atom      3   H  Mean Z*:       -0.03479
      E*x (        0.01027       -0.00000        0.00000 )
      E*y (        0.00000        0.01028       -0.00010 )
      E*z (        0.00000        0.00000       -0.12492 )
           atom      4   H  Mean Z*:       -0.03474
      E*x (        0.01026        0.00000        0.00000 )
      E*y (        0.00000        0.01027       -0.00010 )
      E*z (        0.00000        0.00003       -0.12476 )

          Effective charges (d P / du) in cartesian axis 

           atom      1   C  
      Px  (       -0.00866        0.00000        0.00000 )
      Py  (        0.00000       -0.00870        0.00000 )
      Pz  (        0.00000        0.00008        0.12520 )
           atom      2   C  
      Px  (       -0.00851        0.00000        0.00000 )
      Py  (        0.00000       -0.00849       -0.00000 )
      Pz  (        0.00000       -0.00016        0.12637 )
           atom      3   H  
      Px  (        0.01193        0.00000        0.00000 )
      Py  (        0.00000        0.01198       -0.00000 )
      Pz  (        0.00000       -0.00002       -0.12402 )
           atom      4   H  
      Px  (        0.01191        0.00000        0.00000 )
      Py  (        0.00000        0.01195       -0.00000 )
      Pz  (        0.00000        0.00011       -0.12387 )

     Diagonalizing the dynamical matrix

     q = (    0.000000000   0.000000000   0.000000000 ) 

 **************************************************************************
     freq (    1) =      -1.186682 [THz] =     -39.583454 [cm-1]
     freq (    2) =       3.125602 [THz] =     104.258853 [cm-1]
     freq (    3) =       3.259946 [THz] =     108.740109 [cm-1]
     freq (    4) =      33.941984 [THz] =    1132.182708 [cm-1]
     freq (    5) =      33.956257 [THz] =    1132.658814 [cm-1]
     freq (    6) =      34.736271 [THz] =    1158.677274 [cm-1]
     freq (    7) =      34.874374 [THz] =    1163.283888 [cm-1]
     freq (    8) =      34.880096 [THz] =    1163.474764 [cm-1]
     freq (    9) =      39.921346 [THz] =    1331.632757 [cm-1]
     freq (   10) =      39.927843 [THz] =    1331.849489 [cm-1]
     freq (   11) =      85.775607 [THz] =    2861.166278 [cm-1]
     freq (   12) =      87.031387 [THz] =    2903.054596 [cm-1]
 **************************************************************************

     Mode symmetry, C_s (m)     point group:

     freq (   1-   1) =        -39.6  [cm-1]   --> A'              I+R
     freq (   2-   2) =        104.3  [cm-1]   --> A''             I+R
     freq (   3-   3) =        108.7  [cm-1]   --> A'              I+R
     freq (   4-   4) =       1132.2  [cm-1]   --> A''             I+R
     freq (   5-   5) =       1132.7  [cm-1]   --> A'              I+R
     freq (   6-   6) =       1158.7  [cm-1]   --> A'              I+R
     freq (   7-   7) =       1163.3  [cm-1]   --> A''             I+R
     freq (   8-   8) =       1163.5  [cm-1]   --> A'              I+R
     freq (   9-   9) =       1331.6  [cm-1]   --> A''             I+R
     freq (  10-  10) =       1331.8  [cm-1]   --> A'              I+R
     freq (  11-  11) =       2861.2  [cm-1]   --> A'              I+R
     freq (  12-  12) =       2903.1  [cm-1]   --> A'              I+R

     Calculation of q =    0.0000000   0.0962250   0.0000000

     Subspace diagonalization in iterative solution of the eigenvalue problem:
     a serial algorithm will be used


     Parallelization info
     --------------------
     sticks:   dense  smooth     PW     G-vecs:    dense   smooth      PW
     Min          47      47     15                 5907     5907    1053
     Max          48      48     16                 5932     5932    1080
     Sum         379     379    121                47317    47317    8517

     Using Slab Decomposition


     Title: 
     phonons of C2H2 on a grid! title line                                      


     bravais-lattice index     =           12
     lattice parameter (alat)  =       4.7961  a.u.
     unit-cell volume          =     752.9055 (a.u.)^3
     number of atoms/cell      =            4
     number of atomic types    =            2
     number of electrons       =        10.00
     number of Kohn-Sham states=           12
     kinetic-energy cutoff     =      60.0000  Ry
     charge density cutoff     =     240.0000  Ry
     Exchange-correlation= PBE
                           (   1   4   3   4   0   0   0)

     celldm(1)=   4.796125  celldm(2)=   1.000000  celldm(3)=   7.880221
     celldm(4)=  -0.500000  celldm(5)=   0.000000  celldm(6)=   0.000000

     crystal axes: (cart. coord. in units of alat)
               a(1) = (   1.000000   0.000000   0.000000 )  
               a(2) = (  -0.500000   0.866025   0.000000 )  
               a(3) = (   0.000000   0.000000   7.880221 )  

     reciprocal axes: (cart. coord. in units 2 pi/alat)
               b(1) = (  1.000000  0.577350 -0.000000 )  
               b(2) = (  0.000000  1.154701  0.000000 )  
               b(3) = (  0.000000 -0.000000  0.126900 )  


     PseudoPot. # 1 for C  read from file:
     ./C.pbe-n-rrkjus_psl.1.0.0.UPF
     MD5 check sum: 1fdd950c42eb37d8afe3dd2f8d12311e
     Pseudo is Ultrasoft + core correction, Zval =  4.0
     Generated using &quot;atomic&quot; code by A. Dal Corso  v.6.3MaX
     Using radial grid of 1073 points,  4 beta functions with: 
                l(1) =   0
                l(2) =   0
                l(3) =   1
                l(4) =   1
     Q(r) pseudized with 0 coefficients 


     PseudoPot. # 2 for H  read from file:
     ./H.pbe-rrkjus_psl.1.0.0.UPF
     MD5 check sum: 3f4114867bd07edc7f1424d066fc1888
     Pseudo is Ultrasoft, Zval =  1.0
     Generated using &quot;atomic&quot; code by A. Dal Corso  v.6.3MaX
     Using radial grid of  929 points,  2 beta functions with: 
                l(1) =   0
                l(2) =   0
     Q(r) pseudized with 0 coefficients 


     atomic species   valence    mass     pseudopotential
        C              4.00    12.01100     C ( 1.00)
        H              1.00     1.00790     H ( 1.00)

      2 Sym. Ops. (no inversion) found



   Cartesian axes

     site n.     atom                  positions (alat units)
         1           C   tau(   1) = (  -0.0000001   0.5774215   3.9401877  )
         2           C   tau(   2) = (   0.5000001   0.2887421   4.1212739  )
         3           H   tau(   3) = (  -0.0000001   0.5774352   3.5021743  )
         4           H   tau(   4) = (   0.5000001   0.2887283   4.5592956  )

     number of k points=   156

     Number of k-points >= 100: set verbosity='high' to print them.

     Dense  grid:    47317 G-vectors     FFT dimensions: (  24,  24, 192)

     Estimated max dynamical RAM per process >       7.11 MB

     Estimated total dynamical RAM >      56.90 MB

     Check: negative core charge=   -0.000011

     The potential is recalculated from file :
     ./_ph0/C2H2.q_2/C2H2.save/charge-density


     negative rho (up, down):  6.908E-04 0.000E+00
     Starting wfcs are   10 atomic +    2 random wfcs

     Band Structure Calculation
     Davidson diagonalization with overlap

     ethr =  1.00E-10,  avg # of iterations = 30.3

     total cpu time spent up to now is       31.2 secs

     End of band structure calculation

     Number of k-points >= 100: set verbosity='high' to print the bands.

     highest occupied, lowest unoccupied level (ev):    -2.7762    0.5793

     Writing config to output data dir ./_ph0/C2H2.q_2/C2H2.save/

     phonons of C2H2 on a grid! title line                                      

     bravais-lattice index     =           12
     lattice parameter (alat)  =       4.7961  a.u.
     unit-cell volume          =     752.9055 (a.u.)^3
     number of atoms/cell      =            4
     number of atomic types    =            2
     kinetic-energy cut-off    =      60.0000  Ry
     charge density cut-off    =     240.0000  Ry
     convergence threshold     =      1.0E-14
     beta                      =       0.7000
     number of iterations used =            4
     Exchange-correlation= PBE
                           (   1   4   3   4   0   0   0)


     celldm(1)=    4.79612  celldm(2)=    1.00000  celldm(3)=    7.88022
     celldm(4)=   -0.50000  celldm(5)=    0.00000  celldm(6)=    0.00000

     crystal axes: (cart. coord. in units of alat)
               a(1) = (  1.0000  0.0000  0.0000 )  
               a(2) = ( -0.5000  0.8660  0.0000 )  
               a(3) = (  0.0000  0.0000  7.8802 )  

     reciprocal axes: (cart. coord. in units 2 pi/alat)
               b(1) = (  1.0000  0.5774 -0.0000 )  
               b(2) = (  0.0000  1.1547  0.0000 )  
               b(3) = (  0.0000 -0.0000  0.1269 )  


     Atoms inside the unit cell: 

     Cartesian axes

     site n.  atom      mass           positions (alat units)
        1     C   12.0110   tau(    1) = (   -0.00000    0.57742    3.94019  )
        2     C   12.0110   tau(    2) = (    0.50000    0.28874    4.12127  )
        3     H    1.0079   tau(    3) = (   -0.00000    0.57744    3.50217  )
        4     H    1.0079   tau(    4) = (    0.50000    0.28873    4.55930  )

     Computing dynamical matrix for 
                    q = (   0.0000000   0.0962250   0.0000000 )

      2 Sym.Ops. (no q -> -q+G )


     G cutoff =  139.8403  (   5909 G-vectors)     FFT grid: ( 24, 24,192)
     number of k points=   156

     PseudoPot. # 1 for C  read from file:
     ./C.pbe-n-rrkjus_psl.1.0.0.UPF
     MD5 check sum: 1fdd950c42eb37d8afe3dd2f8d12311e
     Pseudo is Ultrasoft + core correction, Zval =  4.0
     Generated using &quot;atomic&quot; code by A. Dal Corso  v.6.3MaX
     Using radial grid of 1073 points,  4 beta functions with: 
                l(1) =   0
                l(2) =   0
                l(3) =   1
                l(4) =   1
     Q(r) pseudized with 0 coefficients 


     PseudoPot. # 2 for H  read from file:
     ./H.pbe-rrkjus_psl.1.0.0.UPF
     MD5 check sum: 3f4114867bd07edc7f1424d066fc1888
     Pseudo is Ultrasoft, Zval =  1.0
     Generated using &quot;atomic&quot; code by A. Dal Corso  v.6.3MaX
     Using radial grid of  929 points,  2 beta functions with: 
                l(1) =   0
                l(2) =   0
     Q(r) pseudized with 0 coefficients 


     Mode symmetry, C_s (m)     point group:


     Atomic displacements:
     There are   12 irreducible representations

     Representation     1      1 modes -  To be done

     Representation     2      1 modes -  To be done

     Representation     3      1 modes -  To be done

     Representation     4      1 modes -  To be done

     Representation     5      1 modes -  To be done

     Representation     6      1 modes -  To be done

     Representation     7      1 modes -  To be done

     Representation     8      1 modes -  To be done

     Representation     9      1 modes -  To be done

     Representation    10      1 modes -  To be done

     Representation    11      1 modes -  To be done

     Representation    12      1 modes -  To be done



     Alpha used in Ewald sum =   2.5000

     negative rho (up, down):  6.908E-04 0.000E+00
     PHONON       :   4m19.69s CPU   4m43.12s WALL



     Representation #   1 mode #   1

     Self-consistent Calculation

      iter #   1 total cpu time :   285.1 secs   av.it.:   4.2
      thresh= 1.000E-02 alpha_mix =  0.700 |ddv_scf|^2 =  1.004E-06

      iter #   2 total cpu time :   287.9 secs   av.it.:   8.7
      thresh= 1.002E-04 alpha_mix =  0.700 |ddv_scf|^2 =  4.433E-07

      iter #   3 total cpu time :   290.5 secs   av.it.:   8.5
      thresh= 6.658E-05 alpha_mix =  0.700 |ddv_scf|^2 =  1.147E-08

      iter #   4 total cpu time :   293.3 secs   av.it.:   8.7
      thresh= 1.071E-05 alpha_mix =  0.700 |ddv_scf|^2 =  2.570E-10

      iter #   5 total cpu time :   296.2 secs   av.it.:   9.3
      thresh= 1.603E-06 alpha_mix =  0.700 |ddv_scf|^2 =  1.312E-10

      iter #   6 total cpu time :   298.9 secs   av.it.:   8.6
      thresh= 1.145E-06 alpha_mix =  0.700 |ddv_scf|^2 =  1.701E-13

      iter #   7 total cpu time :   301.9 secs   av.it.:   9.7
      thresh= 4.124E-08 alpha_mix =  0.700 |ddv_scf|^2 =  3.317E-14

      iter #   8 total cpu time :   304.9 secs   av.it.:   9.6
      thresh= 1.821E-08 alpha_mix =  0.700 |ddv_scf|^2 =  3.894E-15

     End of self-consistent calculation

     Convergence has been achieved 


     Representation #   2 mode #   2

     Self-consistent Calculation

      iter #   1 total cpu time :   307.1 secs   av.it.:   4.2
      thresh= 1.000E-02 alpha_mix =  0.700 |ddv_scf|^2 =  9.929E-07

      iter #   2 total cpu time :   309.8 secs   av.it.:   8.6
      thresh= 9.965E-05 alpha_mix =  0.700 |ddv_scf|^2 =  4.330E-07

      iter #   3 total cpu time :   312.5 secs   av.it.:   8.5
      thresh= 6.580E-05 alpha_mix =  0.700 |ddv_scf|^2 =  1.187E-08

      iter #   4 total cpu time :   315.4 secs   av.it.:   8.7
      thresh= 1.089E-05 alpha_mix =  0.700 |ddv_scf|^2 =  2.560E-10

      iter #   5 total cpu time :   318.2 secs   av.it.:   9.3
      thresh= 1.600E-06 alpha_mix =  0.700 |ddv_scf|^2 =  1.277E-10

      iter #   6 total cpu time :   321.0 secs   av.it.:   8.6
      thresh= 1.130E-06 alpha_mix =  0.700 |ddv_scf|^2 =  6.282E-13

      iter #   7 total cpu time :   323.8 secs   av.it.:   9.1
      thresh= 7.926E-08 alpha_mix =  0.700 |ddv_scf|^2 =  2.470E-14

      iter #   8 total cpu time :   326.9 secs   av.it.:   9.7
      thresh= 1.572E-08 alpha_mix =  0.700 |ddv_scf|^2 =  4.306E-15

     End of self-consistent calculation

     Convergence has been achieved 


     Representation #   3 mode #   3

     Self-consistent Calculation

      iter #   1 total cpu time :   329.5 secs   av.it.:   6.1
      thresh= 1.000E-02 alpha_mix =  0.700 |ddv_scf|^2 =  3.004E-05

      iter #   2 total cpu time :   332.4 secs   av.it.:   9.2
      thresh= 5.481E-04 alpha_mix =  0.700 |ddv_scf|^2 =  3.684E-05

      iter #   3 total cpu time :   335.1 secs   av.it.:   8.5
      thresh= 6.069E-04 alpha_mix =  0.700 |ddv_scf|^2 =  3.965E-07

      iter #   4 total cpu time :   337.7 secs   av.it.:   8.1
      thresh= 6.297E-05 alpha_mix =  0.700 |ddv_scf|^2 =  4.311E-08

      iter #   5 total cpu time :   340.3 secs   av.it.:   8.3
      thresh= 2.076E-05 alpha_mix =  0.700 |ddv_scf|^2 =  3.436E-09

      iter #   6 total cpu time :   343.1 secs   av.it.:   8.7
      thresh= 5.862E-06 alpha_mix =  0.700 |ddv_scf|^2 =  4.622E-11

      iter #   7 total cpu time :   346.0 secs   av.it.:   8.7
      thresh= 6.798E-07 alpha_mix =  0.700 |ddv_scf|^2 =  9.089E-14

      iter #   8 total cpu time :   349.0 secs   av.it.:   9.9
      thresh= 3.015E-08 alpha_mix =  0.700 |ddv_scf|^2 =  4.873E-14

      iter #   9 total cpu time :   351.9 secs   av.it.:   9.5
      thresh= 2.207E-08 alpha_mix =  0.700 |ddv_scf|^2 =  1.971E-15

     End of self-consistent calculation

     Convergence has been achieved 


     Representation #   4 mode #   4

     Self-consistent Calculation

      iter #   1 total cpu time :   354.2 secs   av.it.:   5.0
      thresh= 1.000E-02 alpha_mix =  0.700 |ddv_scf|^2 =  1.058E-06

      iter #   2 total cpu time :   357.2 secs   av.it.:   9.5
      thresh= 1.029E-04 alpha_mix =  0.700 |ddv_scf|^2 =  1.170E-06

      iter #   3 total cpu time :   359.9 secs   av.it.:   8.6
      thresh= 1.082E-04 alpha_mix =  0.700 |ddv_scf|^2 =  4.252E-09

      iter #   4 total cpu time :   362.9 secs   av.it.:   9.6
      thresh= 6.521E-06 alpha_mix =  0.700 |ddv_scf|^2 =  1.830E-09

      iter #   5 total cpu time :   365.8 secs   av.it.:   9.3
      thresh= 4.278E-06 alpha_mix =  0.700 |ddv_scf|^2 =  2.791E-10

      iter #   6 total cpu time :   368.5 secs   av.it.:   8.5
      thresh= 1.671E-06 alpha_mix =  0.700 |ddv_scf|^2 =  1.567E-11

      iter #   7 total cpu time :   371.4 secs   av.it.:   9.6
      thresh= 3.958E-07 alpha_mix =  0.700 |ddv_scf|^2 =  1.279E-12

      iter #   8 total cpu time :   374.3 secs   av.it.:   9.5
      thresh= 1.131E-07 alpha_mix =  0.700 |ddv_scf|^2 =  9.935E-14

      iter #   9 total cpu time :   377.4 secs   av.it.:   9.6
      thresh= 3.152E-08 alpha_mix =  0.700 |ddv_scf|^2 =  5.885E-15

     End of self-consistent calculation

     Convergence has been achieved 


     Representation #   5 mode #   5

     Self-consistent Calculation

      iter #   1 total cpu time :   379.9 secs   av.it.:   6.1
      thresh= 1.000E-02 alpha_mix =  0.700 |ddv_scf|^2 =  2.543E-05

      iter #   2 total cpu time :   382.8 secs   av.it.:   9.3
      thresh= 5.043E-04 alpha_mix =  0.700 |ddv_scf|^2 =  3.641E-05

      iter #   3 total cpu time :   385.5 secs   av.it.:   8.5
      thresh= 6.034E-04 alpha_mix =  0.700 |ddv_scf|^2 =  1.465E-07

      iter #   4 total cpu time :   388.2 secs   av.it.:   8.5
      thresh= 3.828E-05 alpha_mix =  0.700 |ddv_scf|^2 =  4.544E-08

      iter #   5 total cpu time :   390.9 secs   av.it.:   8.3
      thresh= 2.132E-05 alpha_mix =  0.700 |ddv_scf|^2 =  3.707E-09

      iter #   6 total cpu time :   393.6 secs   av.it.:   8.7
      thresh= 6.088E-06 alpha_mix =  0.700 |ddv_scf|^2 =  5.385E-11

      iter #   7 total cpu time :   396.5 secs   av.it.:   8.7
      thresh= 7.338E-07 alpha_mix =  0.700 |ddv_scf|^2 =  1.512E-13

      iter #   8 total cpu time :   399.5 secs   av.it.:   9.8
      thresh= 3.888E-08 alpha_mix =  0.700 |ddv_scf|^2 =  7.130E-14

      iter #   9 total cpu time :   402.5 secs   av.it.:   9.6
      thresh= 2.670E-08 alpha_mix =  0.700 |ddv_scf|^2 =  9.370E-15

     End of self-consistent calculation

     Convergence has been achieved 


     Representation #   6 mode #   6

     Self-consistent Calculation

      iter #   1 total cpu time :   404.7 secs   av.it.:   5.0
      thresh= 1.000E-02 alpha_mix =  0.700 |ddv_scf|^2 =  1.029E-06

      iter #   2 total cpu time :   407.9 secs   av.it.:   9.5
      thresh= 1.014E-04 alpha_mix =  0.700 |ddv_scf|^2 =  1.159E-06

      iter #   3 total cpu time :   410.6 secs   av.it.:   8.5
      thresh= 1.077E-04 alpha_mix =  0.700 |ddv_scf|^2 =  4.069E-09

      iter #   4 total cpu time :   413.7 secs   av.it.:   9.7
      thresh= 6.379E-06 alpha_mix =  0.700 |ddv_scf|^2 =  1.997E-09

      iter #   5 total cpu time :   416.6 secs   av.it.:   9.2
      thresh= 4.468E-06 alpha_mix =  0.700 |ddv_scf|^2 =  1.492E-10

      iter #   6 total cpu time :   419.3 secs   av.it.:   8.8
      thresh= 1.222E-06 alpha_mix =  0.700 |ddv_scf|^2 =  9.698E-12

      iter #   7 total cpu time :   422.3 secs   av.it.:   9.6
      thresh= 3.114E-07 alpha_mix =  0.700 |ddv_scf|^2 =  1.190E-12

      iter #   8 total cpu time :   425.2 secs   av.it.:   9.4
      thresh= 1.091E-07 alpha_mix =  0.700 |ddv_scf|^2 =  2.764E-14

      iter #   9 total cpu time :   428.2 secs   av.it.:   9.5
      thresh= 1.662E-08 alpha_mix =  0.700 |ddv_scf|^2 =  1.639E-15

     End of self-consistent calculation

     Convergence has been achieved 


     Representation #   7 mode #   7

     Self-consistent Calculation

      iter #   1 total cpu time :   430.6 secs   av.it.:   5.6
      thresh= 1.000E-02 alpha_mix =  0.700 |ddv_scf|^2 =  2.234E-05

      iter #   2 total cpu time :   433.4 secs   av.it.:   8.6
      thresh= 4.726E-04 alpha_mix =  0.700 |ddv_scf|^2 =  9.009E-06

      iter #   3 total cpu time :   436.1 secs   av.it.:   8.4
      thresh= 3.002E-04 alpha_mix =  0.700 |ddv_scf|^2 =  2.967E-07

      iter #   4 total cpu time :   438.9 secs   av.it.:   8.7
      thresh= 5.447E-05 alpha_mix =  0.700 |ddv_scf|^2 =  5.818E-08

      iter #   5 total cpu time :   441.7 secs   av.it.:   8.7
      thresh= 2.412E-05 alpha_mix =  0.700 |ddv_scf|^2 =  2.843E-09

      iter #   6 total cpu time :   444.4 secs   av.it.:   8.8
      thresh= 5.332E-06 alpha_mix =  0.700 |ddv_scf|^2 =  2.466E-11

      iter #   7 total cpu time :   447.3 secs   av.it.:   9.0
      thresh= 4.965E-07 alpha_mix =  0.700 |ddv_scf|^2 =  6.761E-13

      iter #   8 total cpu time :   450.3 secs   av.it.:   9.8
      thresh= 8.223E-08 alpha_mix =  0.700 |ddv_scf|^2 =  2.292E-13

      iter #   9 total cpu time :   453.1 secs   av.it.:   9.3
      thresh= 4.788E-08 alpha_mix =  0.700 |ddv_scf|^2 =  4.994E-16

     End of self-consistent calculation

     Convergence has been achieved 


     Representation #   8 mode #   8

     Self-consistent Calculation

      iter #   1 total cpu time :   455.6 secs   av.it.:   5.6
      thresh= 1.000E-02 alpha_mix =  0.700 |ddv_scf|^2 =  2.048E-05

      iter #   2 total cpu time :   458.4 secs   av.it.:   8.6
      thresh= 4.526E-04 alpha_mix =  0.700 |ddv_scf|^2 =  8.820E-06

      iter #   3 total cpu time :   461.1 secs   av.it.:   8.4
      thresh= 2.970E-04 alpha_mix =  0.700 |ddv_scf|^2 =  1.976E-07

      iter #   4 total cpu time :   463.9 secs   av.it.:   8.9
      thresh= 4.445E-05 alpha_mix =  0.700 |ddv_scf|^2 =  5.494E-08

      iter #   5 total cpu time :   466.7 secs   av.it.:   8.7
      thresh= 2.344E-05 alpha_mix =  0.700 |ddv_scf|^2 =  3.450E-09

      iter #   6 total cpu time :   469.4 secs   av.it.:   8.8
      thresh= 5.873E-06 alpha_mix =  0.700 |ddv_scf|^2 =  2.087E-11

      iter #   7 total cpu time :   472.4 secs   av.it.:   9.1
      thresh= 4.568E-07 alpha_mix =  0.700 |ddv_scf|^2 =  7.436E-13

      iter #   8 total cpu time :   475.4 secs   av.it.:   9.8
      thresh= 8.623E-08 alpha_mix =  0.700 |ddv_scf|^2 =  1.977E-13

      iter #   9 total cpu time :   478.4 secs   av.it.:   9.5
      thresh= 4.446E-08 alpha_mix =  0.700 |ddv_scf|^2 =  1.102E-15

     End of self-consistent calculation

     Convergence has been achieved 


     Representation #   9 mode #   9

     Self-consistent Calculation

      iter #   1 total cpu time :   480.8 secs   av.it.:   5.3
      thresh= 1.000E-02 alpha_mix =  0.700 |ddv_scf|^2 =  2.674E-06

      iter #   2 total cpu time :   483.5 secs   av.it.:   8.2
      thresh= 1.635E-04 alpha_mix =  0.700 |ddv_scf|^2 =  2.362E-07

      iter #   3 total cpu time :   485.8 secs   av.it.:   7.1
      thresh= 4.860E-05 alpha_mix =  0.700 |ddv_scf|^2 =  2.478E-11

      iter #   4 total cpu time :   488.7 secs   av.it.:   9.4
      thresh= 4.978E-07 alpha_mix =  0.700 |ddv_scf|^2 =  8.564E-13

      iter #   5 total cpu time :   491.5 secs   av.it.:   8.6
      thresh= 9.254E-08 alpha_mix =  0.700 |ddv_scf|^2 =  8.654E-15

     End of self-consistent calculation

     Convergence has been achieved 


     Representation #  10 mode #  10

     Self-consistent Calculation

      iter #   1 total cpu time :   493.5 secs   av.it.:   4.0
      thresh= 1.000E-02 alpha_mix =  0.700 |ddv_scf|^2 =  6.009E-09

      iter #   2 total cpu time :   496.6 secs   av.it.:   9.7
      thresh= 7.752E-06 alpha_mix =  0.700 |ddv_scf|^2 =  3.997E-10

      iter #   3 total cpu time :   499.4 secs   av.it.:   9.2
      thresh= 1.999E-06 alpha_mix =  0.700 |ddv_scf|^2 =  4.295E-12

      iter #   4 total cpu time :   502.4 secs   av.it.:   9.0
      thresh= 2.073E-07 alpha_mix =  0.700 |ddv_scf|^2 =  2.892E-14

      iter #   5 total cpu time :   505.4 secs   av.it.:   9.8
      thresh= 1.701E-08 alpha_mix =  0.700 |ddv_scf|^2 =  5.663E-16

     End of self-consistent calculation

     Convergence has been achieved 


     Representation #  11 mode #  11

     Self-consistent Calculation

      iter #   1 total cpu time :   507.5 secs   av.it.:   4.0
      thresh= 1.000E-02 alpha_mix =  0.700 |ddv_scf|^2 =  6.785E-09

      iter #   2 total cpu time :   510.7 secs   av.it.:   9.6
      thresh= 8.237E-06 alpha_mix =  0.700 |ddv_scf|^2 =  4.708E-10

      iter #   3 total cpu time :   513.7 secs   av.it.:   9.1
      thresh= 2.170E-06 alpha_mix =  0.700 |ddv_scf|^2 =  3.610E-12

      iter #   4 total cpu time :   516.6 secs   av.it.:   9.2
      thresh= 1.900E-07 alpha_mix =  0.700 |ddv_scf|^2 =  2.590E-14

      iter #   5 total cpu time :   519.7 secs   av.it.:   9.8
      thresh= 1.609E-08 alpha_mix =  0.700 |ddv_scf|^2 =  5.884E-16

     End of self-consistent calculation

     Convergence has been achieved 


     Representation #  12 mode #  12

     Self-consistent Calculation

      iter #   1 total cpu time :   522.1 secs   av.it.:   5.3
      thresh= 1.000E-02 alpha_mix =  0.700 |ddv_scf|^2 =  1.238E-05

      iter #   2 total cpu time :   524.5 secs   av.it.:   7.4
      thresh= 3.518E-04 alpha_mix =  0.700 |ddv_scf|^2 =  1.136E-06

      iter #   3 total cpu time :   526.7 secs   av.it.:   6.2
      thresh= 1.066E-04 alpha_mix =  0.700 |ddv_scf|^2 =  4.006E-11

      iter #   4 total cpu time :   529.6 secs   av.it.:   9.3
      thresh= 6.330E-07 alpha_mix =  0.700 |ddv_scf|^2 =  1.602E-13

      iter #   5 total cpu time :   532.6 secs   av.it.:   9.5
      thresh= 4.003E-08 alpha_mix =  0.700 |ddv_scf|^2 =  6.520E-15

     End of self-consistent calculation

     Convergence has been achieved 

     Number of q in the star =    1
     List of q in the star:
          1   0.000000000   0.096225045   0.000000000
     In addition there is the -q list: 
          1  -0.000000000  -0.096225045  -0.000000000

     Diagonalizing the dynamical matrix

     q = (    0.000000000   0.096225045   0.000000000 ) 

 **************************************************************************
     freq (    1) =      -0.958578 [THz] =     -31.974716 [cm-1]
     freq (    2) =       5.480426 [THz] =     182.807331 [cm-1]
     freq (    3) =       7.414742 [THz] =     247.329169 [cm-1]
     freq (    4) =      32.706411 [THz] =    1090.968423 [cm-1]
     freq (    5) =      33.816225 [THz] =    1127.987859 [cm-1]
     freq (    6) =      34.789204 [THz] =    1160.442935 [cm-1]
     freq (    7) =      34.946677 [THz] =    1165.695679 [cm-1]
     freq (    8) =      35.577566 [THz] =    1186.739873 [cm-1]
     freq (    9) =      39.794609 [THz] =    1327.405285 [cm-1]
     freq (   10) =      40.015245 [THz] =    1334.764905 [cm-1]
     freq (   11) =      85.720572 [THz] =    2859.330509 [cm-1]
     freq (   12) =      86.913846 [THz] =    2899.133837 [cm-1]
 **************************************************************************

     Mode symmetry, C_s (m)     point group:

     freq (   1-   1) =        -32.0  [cm-1]   --> A'                 
     freq (   2-   2) =        182.8  [cm-1]   --> A''                
     freq (   3-   3) =        247.3  [cm-1]   --> A'                 
     freq (   4-   4) =       1091.0  [cm-1]   --> A'                 
     freq (   5-   5) =       1128.0  [cm-1]   --> A''                
     freq (   6-   6) =       1160.4  [cm-1]   --> A''                
     freq (   7-   7) =       1165.7  [cm-1]   --> A'                 
     freq (   8-   8) =       1186.7  [cm-1]   --> A'                 
     freq (   9-   9) =       1327.4  [cm-1]   --> A''                
     freq (  10-  10) =       1334.8  [cm-1]   --> A'                 
     freq (  11-  11) =       2859.3  [cm-1]   --> A'                 
     freq (  12-  12) =       2899.1  [cm-1]   --> A'                 

     Calculation of q =    0.0000000   0.1924501   0.0000000

     Parallelization info
     --------------------
     sticks:   dense  smooth     PW     G-vecs:    dense   smooth      PW
     Min          47      47     15                 5907     5907    1091
     Max          48      48     16                 5932     5932    1124
     Sum         379     379    121                47317    47317    8807

     Using Slab Decomposition


     Title: 
     phonons of C2H2 on a grid! title line                                      


     bravais-lattice index     =           12
     lattice parameter (alat)  =       4.7961  a.u.
     unit-cell volume          =     752.9055 (a.u.)^3
     number of atoms/cell      =            4
     number of atomic types    =            2
     number of electrons       =        10.00
     number of Kohn-Sham states=           12
     kinetic-energy cutoff     =      60.0000  Ry
     charge density cutoff     =     240.0000  Ry
     Exchange-correlation= PBE
                           (   1   4   3   4   0   0   0)

     celldm(1)=   4.796125  celldm(2)=   1.000000  celldm(3)=   7.880221
     celldm(4)=  -0.500000  celldm(5)=   0.000000  celldm(6)=   0.000000

     crystal axes: (cart. coord. in units of alat)
               a(1) = (   1.000000   0.000000   0.000000 )  
               a(2) = (  -0.500000   0.866025   0.000000 )  
               a(3) = (   0.000000   0.000000   7.880221 )  

     reciprocal axes: (cart. coord. in units 2 pi/alat)
               b(1) = (  1.000000  0.577350 -0.000000 )  
               b(2) = (  0.000000  1.154701  0.000000 )  
               b(3) = (  0.000000 -0.000000  0.126900 )  


     PseudoPot. # 1 for C  read from file:
     ./C.pbe-n-rrkjus_psl.1.0.0.UPF
     MD5 check sum: 1fdd950c42eb37d8afe3dd2f8d12311e
     Pseudo is Ultrasoft + core correction, Zval =  4.0
     Generated using &quot;atomic&quot; code by A. Dal Corso  v.6.3MaX
     Using radial grid of 1073 points,  4 beta functions with: 
                l(1) =   0
                l(2) =   0
                l(3) =   1
                l(4) =   1
     Q(r) pseudized with 0 coefficients 


     PseudoPot. # 2 for H  read from file:
     ./H.pbe-rrkjus_psl.1.0.0.UPF
     MD5 check sum: 3f4114867bd07edc7f1424d066fc1888
     Pseudo is Ultrasoft, Zval =  1.0
     Generated using &quot;atomic&quot; code by A. Dal Corso  v.6.3MaX
     Using radial grid of  929 points,  2 beta functions with: 
                l(1) =   0
                l(2) =   0
     Q(r) pseudized with 0 coefficients 


     atomic species   valence    mass     pseudopotential
        C              4.00    12.01100     C ( 1.00)
        H              1.00     1.00790     H ( 1.00)

      2 Sym. Ops. (no inversion) found



   Cartesian axes

     site n.     atom                  positions (alat units)
         1           C   tau(   1) = (  -0.0000001   0.5774215   3.9401877  )
         2           C   tau(   2) = (   0.5000001   0.2887421   4.1212739  )
         3           H   tau(   3) = (  -0.0000001   0.5774352   3.5021743  )
         4           H   tau(   4) = (   0.5000001   0.2887283   4.5592956  )

     number of k points=   156

     Number of k-points >= 100: set verbosity='high' to print them.

     Dense  grid:    47317 G-vectors     FFT dimensions: (  24,  24, 192)

     Estimated max dynamical RAM per process >       7.13 MB

     Estimated total dynamical RAM >      57.03 MB

     Check: negative core charge=   -0.000011

     The potential is recalculated from file :
     ./_ph0/C2H2.q_3/C2H2.save/charge-density


     negative rho (up, down):  6.908E-04 0.000E+00
     Starting wfcs are   10 atomic +    2 random wfcs

     Band Structure Calculation
     Davidson diagonalization with overlap

     ethr =  1.00E-10,  avg # of iterations = 30.6

     total cpu time spent up to now is       59.5 secs

     End of band structure calculation

     Number of k-points >= 100: set verbosity='high' to print the bands.

     highest occupied, lowest unoccupied level (ev):    -2.7762    0.5793

     Writing config to output data dir ./_ph0/C2H2.q_3/C2H2.save/

     phonons of C2H2 on a grid! title line                                      

     bravais-lattice index     =           12
     lattice parameter (alat)  =       4.7961  a.u.
     unit-cell volume          =     752.9055 (a.u.)^3
     number of atoms/cell      =            4
     number of atomic types    =            2
     kinetic-energy cut-off    =      60.0000  Ry
     charge density cut-off    =     240.0000  Ry
     convergence threshold     =      1.0E-14
     beta                      =       0.7000
     number of iterations used =            4
     Exchange-correlation= PBE
                           (   1   4   3   4   0   0   0)


     celldm(1)=    4.79612  celldm(2)=    1.00000  celldm(3)=    7.88022
     celldm(4)=   -0.50000  celldm(5)=    0.00000  celldm(6)=    0.00000

     crystal axes: (cart. coord. in units of alat)
               a(1) = (  1.0000  0.0000  0.0000 )  
               a(2) = ( -0.5000  0.8660  0.0000 )  
               a(3) = (  0.0000  0.0000  7.8802 )  

     reciprocal axes: (cart. coord. in units 2 pi/alat)
               b(1) = (  1.0000  0.5774 -0.0000 )  
               b(2) = (  0.0000  1.1547  0.0000 )  
               b(3) = (  0.0000 -0.0000  0.1269 )  


     Atoms inside the unit cell: 

     Cartesian axes

     site n.  atom      mass           positions (alat units)
        1     C   12.0110   tau(    1) = (   -0.00000    0.57742    3.94019  )
        2     C   12.0110   tau(    2) = (    0.50000    0.28874    4.12127  )
        3     H    1.0079   tau(    3) = (   -0.00000    0.57744    3.50217  )
        4     H    1.0079   tau(    4) = (    0.50000    0.28873    4.55930  )

     Computing dynamical matrix for 
                    q = (   0.0000000   0.1924501   0.0000000 )

      2 Sym.Ops. (no q -> -q+G )


     G cutoff =  139.8403  (   5920 G-vectors)     FFT grid: ( 24, 24,192)
     number of k points=   156

     PseudoPot. # 1 for C  read from file:
     ./C.pbe-n-rrkjus_psl.1.0.0.UPF
     MD5 check sum: 1fdd950c42eb37d8afe3dd2f8d12311e
     Pseudo is Ultrasoft + core correction, Zval =  4.0
     Generated using &quot;atomic&quot; code by A. Dal Corso  v.6.3MaX
     Using radial grid of 1073 points,  4 beta functions with: 
                l(1) =   0
                l(2) =   0
                l(3) =   1
                l(4) =   1
     Q(r) pseudized with 0 coefficients 


     PseudoPot. # 2 for H  read from file:
     ./H.pbe-rrkjus_psl.1.0.0.UPF
     MD5 check sum: 3f4114867bd07edc7f1424d066fc1888
     Pseudo is Ultrasoft, Zval =  1.0
     Generated using &quot;atomic&quot; code by A. Dal Corso  v.6.3MaX
     Using radial grid of  929 points,  2 beta functions with: 
                l(1) =   0
                l(2) =   0
     Q(r) pseudized with 0 coefficients 


     Mode symmetry, C_s (m)     point group:


     Atomic displacements:
     There are   12 irreducible representations

     Representation     1      1 modes -  To be done

     Representation     2      1 modes -  To be done

     Representation     3      1 modes -  To be done

     Representation     4      1 modes -  To be done

     Representation     5      1 modes -  To be done

     Representation     6      1 modes -  To be done

     Representation     7      1 modes -  To be done

     Representation     8      1 modes -  To be done

     Representation     9      1 modes -  To be done

     Representation    10      1 modes -  To be done

     Representation    11      1 modes -  To be done

     Representation    12      1 modes -  To be done



     Alpha used in Ewald sum =   2.5000

     negative rho (up, down):  6.908E-04 0.000E+00
     PHONON       :   8m39.22s CPU   9m24.37s WALL



     Representation #   1 mode #   1

     Self-consistent Calculation

      iter #   1 total cpu time :   566.4 secs   av.it.:   4.3
      thresh= 1.000E-02 alpha_mix =  0.700 |ddv_scf|^2 =  5.299E-07

      iter #   2 total cpu time :   569.5 secs   av.it.:   9.3
      thresh= 7.279E-05 alpha_mix =  0.700 |ddv_scf|^2 =  4.769E-07

      iter #   3 total cpu time :   573.0 secs   av.it.:   8.7
      thresh= 6.906E-05 alpha_mix =  0.700 |ddv_scf|^2 =  5.383E-09

      iter #   4 total cpu time :   575.9 secs   av.it.:   9.1
      thresh= 7.337E-06 alpha_mix =  0.700 |ddv_scf|^2 =  2.741E-10

      iter #   5 total cpu time :   578.8 secs   av.it.:   9.1
      thresh= 1.655E-06 alpha_mix =  0.700 |ddv_scf|^2 =  5.445E-11

      iter #   6 total cpu time :   581.8 secs   av.it.:   9.1
      thresh= 7.379E-07 alpha_mix =  0.700 |ddv_scf|^2 =  2.831E-13

      iter #   7 total cpu time :   584.8 secs   av.it.:  10.1
      thresh= 5.321E-08 alpha_mix =  0.700 |ddv_scf|^2 =  1.030E-13

      iter #   8 total cpu time :   587.9 secs   av.it.:   9.8
      thresh= 3.210E-08 alpha_mix =  0.700 |ddv_scf|^2 =  6.537E-16

     End of self-consistent calculation

     Convergence has been achieved 


     Representation #   2 mode #   2

     Self-consistent Calculation

      iter #   1 total cpu time :   590.0 secs   av.it.:   4.3
      thresh= 1.000E-02 alpha_mix =  0.700 |ddv_scf|^2 =  5.224E-07

      iter #   2 total cpu time :   592.9 secs   av.it.:   9.3
      thresh= 7.227E-05 alpha_mix =  0.700 |ddv_scf|^2 =  4.644E-07

      iter #   3 total cpu time :   595.9 secs   av.it.:   8.7
      thresh= 6.815E-05 alpha_mix =  0.700 |ddv_scf|^2 =  5.407E-09

      iter #   4 total cpu time :   598.8 secs   av.it.:   9.1
      thresh= 7.353E-06 alpha_mix =  0.700 |ddv_scf|^2 =  2.792E-10

      iter #   5 total cpu time :   601.6 secs   av.it.:   9.0
      thresh= 1.671E-06 alpha_mix =  0.700 |ddv_scf|^2 =  5.249E-11

      iter #   6 total cpu time :   604.5 secs   av.it.:   9.1
      thresh= 7.245E-07 alpha_mix =  0.700 |ddv_scf|^2 =  4.091E-13

      iter #   7 total cpu time :   607.6 secs   av.it.:   9.9
      thresh= 6.396E-08 alpha_mix =  0.700 |ddv_scf|^2 =  9.795E-14

      iter #   8 total cpu time :   610.6 secs   av.it.:   9.8
      thresh= 3.130E-08 alpha_mix =  0.700 |ddv_scf|^2 =  9.426E-16

     End of self-consistent calculation

     Convergence has been achieved 


     Representation #   3 mode #   3

     Self-consistent Calculation

      iter #   1 total cpu time :   613.2 secs   av.it.:   5.9
      thresh= 1.000E-02 alpha_mix =  0.700 |ddv_scf|^2 =  1.355E-05

      iter #   2 total cpu time :   616.2 secs   av.it.:   9.3
      thresh= 3.681E-04 alpha_mix =  0.700 |ddv_scf|^2 =  4.928E-06

      iter #   3 total cpu time :   619.1 secs   av.it.:   9.3
      thresh= 2.220E-04 alpha_mix =  0.700 |ddv_scf|^2 =  6.120E-07

      iter #   4 total cpu time :   621.9 secs   av.it.:   8.9
      thresh= 7.823E-05 alpha_mix =  0.700 |ddv_scf|^2 =  1.072E-07

      iter #   5 total cpu time :   624.7 secs   av.it.:   8.8
      thresh= 3.275E-05 alpha_mix =  0.700 |ddv_scf|^2 =  1.022E-09

      iter #   6 total cpu time :   627.7 secs   av.it.:   9.4
      thresh= 3.197E-06 alpha_mix =  0.700 |ddv_scf|^2 =  2.850E-11

      iter #   7 total cpu time :   630.8 secs   av.it.:   9.8
      thresh= 5.338E-07 alpha_mix =  0.700 |ddv_scf|^2 =  2.098E-12

      iter #   8 total cpu time :   633.7 secs   av.it.:   9.6
      thresh= 1.449E-07 alpha_mix =  0.700 |ddv_scf|^2 =  4.383E-14

      iter #   9 total cpu time :   636.7 secs   av.it.:   9.1
      thresh= 2.094E-08 alpha_mix =  0.700 |ddv_scf|^2 =  1.668E-15

     End of self-consistent calculation

     Convergence has been achieved 


     Representation #   4 mode #   4

     Self-consistent Calculation

      iter #   1 total cpu time :   638.9 secs   av.it.:   4.9
      thresh= 1.000E-02 alpha_mix =  0.700 |ddv_scf|^2 =  4.814E-07

      iter #   2 total cpu time :   642.0 secs   av.it.:   9.9
      thresh= 6.938E-05 alpha_mix =  0.700 |ddv_scf|^2 =  7.868E-07

      iter #   3 total cpu time :   644.8 secs   av.it.:   8.7
      thresh= 8.870E-05 alpha_mix =  0.700 |ddv_scf|^2 =  2.444E-09

      iter #   4 total cpu time :   647.8 secs   av.it.:   9.8
      thresh= 4.944E-06 alpha_mix =  0.700 |ddv_scf|^2 =  3.210E-10

      iter #   5 total cpu time :   650.9 secs   av.it.:   9.8
      thresh= 1.792E-06 alpha_mix =  0.700 |ddv_scf|^2 =  4.773E-11

      iter #   6 total cpu time :   654.0 secs   av.it.:   9.8
      thresh= 6.908E-07 alpha_mix =  0.700 |ddv_scf|^2 =  1.080E-11

      iter #   7 total cpu time :   657.0 secs   av.it.:   9.4
      thresh= 3.286E-07 alpha_mix =  0.700 |ddv_scf|^2 =  7.683E-13

      iter #   8 total cpu time :   659.9 secs   av.it.:   9.4
      thresh= 8.765E-08 alpha_mix =  0.700 |ddv_scf|^2 =  4.424E-14

      iter #   9 total cpu time :   662.7 secs   av.it.:   8.9
      thresh= 2.103E-08 alpha_mix =  0.700 |ddv_scf|^2 =  1.266E-15

     End of self-consistent calculation

     Convergence has been achieved 


     Representation #   5 mode #   5

     Self-consistent Calculation

      iter #   1 total cpu time :   665.3 secs   av.it.:   5.9
      thresh= 1.000E-02 alpha_mix =  0.700 |ddv_scf|^2 =  8.796E-06

      iter #   2 total cpu time :   668.3 secs   av.it.:   9.5
      thresh= 2.966E-04 alpha_mix =  0.700 |ddv_scf|^2 =  4.533E-06

      iter #   3 total cpu time :   671.2 secs   av.it.:   9.2
      thresh= 2.129E-04 alpha_mix =  0.700 |ddv_scf|^2 =  2.366E-07

      iter #   4 total cpu time :   674.0 secs   av.it.:   8.9
      thresh= 4.864E-05 alpha_mix =  0.700 |ddv_scf|^2 =  8.610E-08

      iter #   5 total cpu time :   676.8 secs   av.it.:   8.8
      thresh= 2.934E-05 alpha_mix =  0.700 |ddv_scf|^2 =  1.139E-09

      iter #   6 total cpu time :   679.7 secs   av.it.:   9.4
      thresh= 3.374E-06 alpha_mix =  0.700 |ddv_scf|^2 =  3.178E-11

      iter #   7 total cpu time :   682.8 secs   av.it.:   9.8
      thresh= 5.638E-07 alpha_mix =  0.700 |ddv_scf|^2 =  2.285E-12

      iter #   8 total cpu time :   685.7 secs   av.it.:   9.5
      thresh= 1.512E-07 alpha_mix =  0.700 |ddv_scf|^2 =  4.823E-14

      iter #   9 total cpu time :   688.7 secs   av.it.:   9.2
      thresh= 2.196E-08 alpha_mix =  0.700 |ddv_scf|^2 =  5.366E-15

     End of self-consistent calculation

     Convergence has been achieved 


     Representation #   6 mode #   6

     Self-consistent Calculation

      iter #   1 total cpu time :   691.0 secs   av.it.:   4.9
      thresh= 1.000E-02 alpha_mix =  0.700 |ddv_scf|^2 =  4.713E-07

      iter #   2 total cpu time :   694.1 secs   av.it.:   9.9
      thresh= 6.865E-05 alpha_mix =  0.700 |ddv_scf|^2 =  7.991E-07

      iter #   3 total cpu time :   696.9 secs   av.it.:   8.7
      thresh= 8.939E-05 alpha_mix =  0.700 |ddv_scf|^2 =  2.976E-09

      iter #   4 total cpu time :   699.9 secs   av.it.:   9.8
      thresh= 5.456E-06 alpha_mix =  0.700 |ddv_scf|^2 =  3.374E-10

      iter #   5 total cpu time :   702.9 secs   av.it.:   9.8
      thresh= 1.837E-06 alpha_mix =  0.700 |ddv_scf|^2 =  5.160E-11

      iter #   6 total cpu time :   706.0 secs   av.it.:   9.8
      thresh= 7.183E-07 alpha_mix =  0.700 |ddv_scf|^2 =  6.459E-12

      iter #   7 total cpu time :   708.9 secs   av.it.:   9.3
      thresh= 2.542E-07 alpha_mix =  0.700 |ddv_scf|^2 =  6.329E-13

      iter #   8 total cpu time :   711.8 secs   av.it.:   9.2
      thresh= 7.956E-08 alpha_mix =  0.700 |ddv_scf|^2 =  1.284E-14

      iter #   9 total cpu time :   714.7 secs   av.it.:   9.1
      thresh= 1.133E-08 alpha_mix =  0.700 |ddv_scf|^2 =  3.951E-16

     End of self-consistent calculation

     Convergence has been achieved 


     Representation #   7 mode #   7

     Self-consistent Calculation

      iter #   1 total cpu time :   717.3 secs   av.it.:   5.8
      thresh= 1.000E-02 alpha_mix =  0.700 |ddv_scf|^2 =  1.608E-05

      iter #   2 total cpu time :   720.2 secs   av.it.:   9.3
      thresh= 4.009E-04 alpha_mix =  0.700 |ddv_scf|^2 =  1.444E-05

      iter #   3 total cpu time :   723.0 secs   av.it.:   8.7
      thresh= 3.800E-04 alpha_mix =  0.700 |ddv_scf|^2 =  3.802E-07

      iter #   4 total cpu time :   725.8 secs   av.it.:   8.9
      thresh= 6.166E-05 alpha_mix =  0.700 |ddv_scf|^2 =  2.237E-08

      iter #   5 total cpu time :   728.7 secs   av.it.:   9.4
      thresh= 1.496E-05 alpha_mix =  0.700 |ddv_scf|^2 =  4.395E-10

      iter #   6 total cpu time :   731.7 secs   av.it.:   9.5
      thresh= 2.097E-06 alpha_mix =  0.700 |ddv_scf|^2 =  1.163E-11

      iter #   7 total cpu time :   734.6 secs   av.it.:   9.0
      thresh= 3.411E-07 alpha_mix =  0.700 |ddv_scf|^2 =  1.849E-13

      iter #   8 total cpu time :   737.6 secs   av.it.:   9.7
      thresh= 4.300E-08 alpha_mix =  0.700 |ddv_scf|^2 =  5.469E-14

      iter #   9 total cpu time :   740.6 secs   av.it.:   9.5
      thresh= 2.339E-08 alpha_mix =  0.700 |ddv_scf|^2 =  5.092E-16

     End of self-consistent calculation

     Convergence has been achieved 


     Representation #   8 mode #   8

     Self-consistent Calculation

      iter #   1 total cpu time :   743.1 secs   av.it.:   5.8
      thresh= 1.000E-02 alpha_mix =  0.700 |ddv_scf|^2 =  1.419E-05

      iter #   2 total cpu time :   746.1 secs   av.it.:   9.3
      thresh= 3.767E-04 alpha_mix =  0.700 |ddv_scf|^2 =  1.421E-05

      iter #   3 total cpu time :   748.8 secs   av.it.:   8.7
      thresh= 3.769E-04 alpha_mix =  0.700 |ddv_scf|^2 =  2.137E-07

      iter #   4 total cpu time :   751.7 secs   av.it.:   9.0
      thresh= 4.623E-05 alpha_mix =  0.700 |ddv_scf|^2 =  2.268E-08

      iter #   5 total cpu time :   754.6 secs   av.it.:   9.3
      thresh= 1.506E-05 alpha_mix =  0.700 |ddv_scf|^2 =  5.336E-10

      iter #   6 total cpu time :   757.6 secs   av.it.:   9.4
      thresh= 2.310E-06 alpha_mix =  0.700 |ddv_scf|^2 =  1.121E-11

      iter #   7 total cpu time :   760.4 secs   av.it.:   9.0
      thresh= 3.349E-07 alpha_mix =  0.700 |ddv_scf|^2 =  2.283E-13

      iter #   8 total cpu time :   763.4 secs   av.it.:   9.6
      thresh= 4.779E-08 alpha_mix =  0.700 |ddv_scf|^2 =  6.549E-14

      iter #   9 total cpu time :   766.4 secs   av.it.:   9.5
      thresh= 2.559E-08 alpha_mix =  0.700 |ddv_scf|^2 =  1.060E-15

     End of self-consistent calculation

     Convergence has been achieved 


     Representation #   9 mode #   9

     Self-consistent Calculation

      iter #   1 total cpu time :   768.8 secs   av.it.:   5.3
      thresh= 1.000E-02 alpha_mix =  0.700 |ddv_scf|^2 =  2.710E-06

      iter #   2 total cpu time :   771.4 secs   av.it.:   8.2
      thresh= 1.646E-04 alpha_mix =  0.700 |ddv_scf|^2 =  2.387E-07

      iter #   3 total cpu time :   773.7 secs   av.it.:   7.2
      thresh= 4.886E-05 alpha_mix =  0.700 |ddv_scf|^2 =  3.881E-11

      iter #   4 total cpu time :   776.7 secs   av.it.:   9.4
      thresh= 6.230E-07 alpha_mix =  0.700 |ddv_scf|^2 =  1.019E-12

      iter #   5 total cpu time :   779.5 secs   av.it.:   9.0
      thresh= 1.010E-07 alpha_mix =  0.700 |ddv_scf|^2 =  1.524E-14

      iter #   6 total cpu time :   782.4 secs   av.it.:   8.9
      thresh= 1.235E-08 alpha_mix =  0.700 |ddv_scf|^2 =  2.840E-17

     End of self-consistent calculation

     Convergence has been achieved 


     Representation #  10 mode #  10

     Self-consistent Calculation

      iter #   1 total cpu time :   784.5 secs   av.it.:   4.0
      thresh= 1.000E-02 alpha_mix =  0.700 |ddv_scf|^2 =  6.204E-09

      iter #   2 total cpu time :   787.5 secs   av.it.:   9.6
      thresh= 7.877E-06 alpha_mix =  0.700 |ddv_scf|^2 =  3.980E-10

      iter #   3 total cpu time :   790.4 secs   av.it.:   9.2
      thresh= 1.995E-06 alpha_mix =  0.700 |ddv_scf|^2 =  5.234E-12

      iter #   4 total cpu time :   793.2 secs   av.it.:   9.0
      thresh= 2.288E-07 alpha_mix =  0.700 |ddv_scf|^2 =  3.504E-14

      iter #   5 total cpu time :   796.3 secs   av.it.:   9.7
      thresh= 1.872E-08 alpha_mix =  0.700 |ddv_scf|^2 =  8.468E-16

     End of self-consistent calculation

     Convergence has been achieved 


     Representation #  11 mode #  11

     Self-consistent Calculation

      iter #   1 total cpu time :   798.4 secs   av.it.:   4.0
      thresh= 1.000E-02 alpha_mix =  0.700 |ddv_scf|^2 =  6.979E-09

      iter #   2 total cpu time :   801.4 secs   av.it.:   9.5
      thresh= 8.354E-06 alpha_mix =  0.700 |ddv_scf|^2 =  4.675E-10

      iter #   3 total cpu time :   804.4 secs   av.it.:   9.2
      thresh= 2.162E-06 alpha_mix =  0.700 |ddv_scf|^2 =  4.659E-12

      iter #   4 total cpu time :   807.3 secs   av.it.:   9.0
      thresh= 2.158E-07 alpha_mix =  0.700 |ddv_scf|^2 =  3.081E-14

      iter #   5 total cpu time :   810.3 secs   av.it.:   9.8
      thresh= 1.755E-08 alpha_mix =  0.700 |ddv_scf|^2 =  8.775E-16

     End of self-consistent calculation

     Convergence has been achieved 


     Representation #  12 mode #  12

     Self-consistent Calculation

      iter #   1 total cpu time :   812.7 secs   av.it.:   5.3
      thresh= 1.000E-02 alpha_mix =  0.700 |ddv_scf|^2 =  1.241E-05

      iter #   2 total cpu time :   815.2 secs   av.it.:   7.4
      thresh= 3.523E-04 alpha_mix =  0.700 |ddv_scf|^2 =  1.138E-06

      iter #   3 total cpu time :   817.4 secs   av.it.:   6.3
      thresh= 1.067E-04 alpha_mix =  0.700 |ddv_scf|^2 =  3.880E-11

      iter #   4 total cpu time :   820.4 secs   av.it.:   9.4
      thresh= 6.229E-07 alpha_mix =  0.700 |ddv_scf|^2 =  2.267E-13

      iter #   5 total cpu time :   823.4 secs   av.it.:   9.5
      thresh= 4.762E-08 alpha_mix =  0.700 |ddv_scf|^2 =  8.025E-15

     End of self-consistent calculation

     Convergence has been achieved 

     Number of q in the star =    1
     List of q in the star:
          1   0.000000000   0.192450090   0.000000000
     In addition there is the -q list: 
          1  -0.000000000  -0.192450090  -0.000000000

     Diagonalizing the dynamical matrix

     q = (    0.000000000   0.192450090   0.000000000 ) 

 **************************************************************************
     freq (    1) =       1.811468 [THz] =      60.424064 [cm-1]
     freq (    2) =       9.024682 [THz] =     301.030976 [cm-1]
     freq (    3) =      13.157032 [THz] =     438.871333 [cm-1]
     freq (    4) =      30.849535 [THz] =    1029.029719 [cm-1]
     freq (    5) =      33.407193 [THz] =    1114.344021 [cm-1]
     freq (    6) =      34.613739 [THz] =    1154.590067 [cm-1]
     freq (    7) =      35.131785 [THz] =    1171.870216 [cm-1]
     freq (    8) =      36.546288 [THz] =    1219.052935 [cm-1]
     freq (    9) =      39.536067 [THz] =    1318.781250 [cm-1]
     freq (   10) =      40.237816 [THz] =    1342.189064 [cm-1]
     freq (   11) =      85.629398 [THz] =    2856.289270 [cm-1]
     freq (   12) =      86.657571 [THz] =    2890.585424 [cm-1]
 **************************************************************************

     Mode symmetry, C_s (m)     point group:

     freq (   1-   1) =         60.4  [cm-1]   --> A'                 
     freq (   2-   2) =        301.0  [cm-1]   --> A''                
     freq (   3-   3) =        438.9  [cm-1]   --> A'                 
     freq (   4-   4) =       1029.0  [cm-1]   --> A'                 
     freq (   5-   5) =       1114.3  [cm-1]   --> A''                
     freq (   6-   6) =       1154.6  [cm-1]   --> A''                
     freq (   7-   7) =       1171.9  [cm-1]   --> A'                 
     freq (   8-   8) =       1219.1  [cm-1]   --> A'                 
     freq (   9-   9) =       1318.8  [cm-1]   --> A''                
     freq (  10-  10) =       1342.2  [cm-1]   --> A'                 
     freq (  11-  11) =       2856.3  [cm-1]   --> A'                 
     freq (  12-  12) =       2890.6  [cm-1]   --> A'                 

     Calculation of q =    0.0000000   0.2886751   0.0000000

     Parallelization info
     --------------------
     sticks:   dense  smooth     PW     G-vecs:    dense   smooth      PW
     Min          47      47     15                 5907     5907    1127
     Max          48      48     16                 5932     5932    1162
     Sum         379     379    121                47317    47317    9095

     Using Slab Decomposition


     Title: 
     phonons of C2H2 on a grid! title line                                      


     bravais-lattice index     =           12
     lattice parameter (alat)  =       4.7961  a.u.
     unit-cell volume          =     752.9055 (a.u.)^3
     number of atoms/cell      =            4
     number of atomic types    =            2
     number of electrons       =        10.00
     number of Kohn-Sham states=           12
     kinetic-energy cutoff     =      60.0000  Ry
     charge density cutoff     =     240.0000  Ry
     Exchange-correlation= PBE
                           (   1   4   3   4   0   0   0)

     celldm(1)=   4.796125  celldm(2)=   1.000000  celldm(3)=   7.880221
     celldm(4)=  -0.500000  celldm(5)=   0.000000  celldm(6)=   0.000000

     crystal axes: (cart. coord. in units of alat)
               a(1) = (   1.000000   0.000000   0.000000 )  
               a(2) = (  -0.500000   0.866025   0.000000 )  
               a(3) = (   0.000000   0.000000   7.880221 )  

     reciprocal axes: (cart. coord. in units 2 pi/alat)
               b(1) = (  1.000000  0.577350 -0.000000 )  
               b(2) = (  0.000000  1.154701  0.000000 )  
               b(3) = (  0.000000 -0.000000  0.126900 )  


     PseudoPot. # 1 for C  read from file:
     ./C.pbe-n-rrkjus_psl.1.0.0.UPF
     MD5 check sum: 1fdd950c42eb37d8afe3dd2f8d12311e
     Pseudo is Ultrasoft + core correction, Zval =  4.0
     Generated using &quot;atomic&quot; code by A. Dal Corso  v.6.3MaX
     Using radial grid of 1073 points,  4 beta functions with: 
                l(1) =   0
                l(2) =   0
                l(3) =   1
                l(4) =   1
     Q(r) pseudized with 0 coefficients 


     PseudoPot. # 2 for H  read from file:
     ./H.pbe-rrkjus_psl.1.0.0.UPF
     MD5 check sum: 3f4114867bd07edc7f1424d066fc1888
     Pseudo is Ultrasoft, Zval =  1.0
     Generated using &quot;atomic&quot; code by A. Dal Corso  v.6.3MaX
     Using radial grid of  929 points,  2 beta functions with: 
                l(1) =   0
[...]

      iter #   6 total cpu time : 21864.3 secs   av.it.:  10.3
      thresh= 1.013E-07 alpha_mix =  0.700 |ddv_scf|^2 =  2.247E-13

      iter #   7 total cpu time : 21870.1 secs   av.it.:  10.0
      thresh= 4.740E-08 alpha_mix =  0.700 |ddv_scf|^2 =  2.654E-15

     End of self-consistent calculation

     Convergence has been achieved 


     Representation #   3 mode #   3

     Self-consistent Calculation

      iter #   1 total cpu time : 21874.8 secs   av.it.:   6.0
      thresh= 1.000E-02 alpha_mix =  0.700 |ddv_scf|^2 =  4.566E-06

      iter #   2 total cpu time : 21880.5 secs   av.it.:   9.8
      thresh= 2.137E-04 alpha_mix =  0.700 |ddv_scf|^2 =  1.704E-06

      iter #   3 total cpu time : 21886.2 secs   av.it.:   9.9
      thresh= 1.306E-04 alpha_mix =  0.700 |ddv_scf|^2 =  2.552E-07

      iter #   4 total cpu time : 21891.8 secs   av.it.:   9.5
      thresh= 5.052E-05 alpha_mix =  0.700 |ddv_scf|^2 =  4.982E-09

      iter #   5 total cpu time : 21897.6 secs   av.it.:  10.1
      thresh= 7.059E-06 alpha_mix =  0.700 |ddv_scf|^2 =  2.542E-10

      iter #   6 total cpu time : 21903.2 secs   av.it.:   9.9
      thresh= 1.594E-06 alpha_mix =  0.700 |ddv_scf|^2 =  6.806E-13

      iter #   7 total cpu time : 21908.9 secs   av.it.:   9.7
      thresh= 8.250E-08 alpha_mix =  0.700 |ddv_scf|^2 =  4.180E-14

      iter #   8 total cpu time : 21914.2 secs   av.it.:   9.3
      thresh= 2.045E-08 alpha_mix =  0.700 |ddv_scf|^2 =  1.525E-15

     End of self-consistent calculation

     Convergence has been achieved 


     Representation #   4 mode #   4

     Self-consistent Calculation

      iter #   1 total cpu time : 21918.8 secs   av.it.:   5.6
      thresh= 1.000E-02 alpha_mix =  0.700 |ddv_scf|^2 =  8.972E-06

      iter #   2 total cpu time : 21924.0 secs   av.it.:   8.6
      thresh= 2.995E-04 alpha_mix =  0.700 |ddv_scf|^2 =  8.526E-07

      iter #   3 total cpu time : 21929.5 secs   av.it.:   9.4
      thresh= 9.233E-05 alpha_mix =  0.700 |ddv_scf|^2 =  1.525E-07

      iter #   4 total cpu time : 21935.1 secs   av.it.:   9.7
      thresh= 3.905E-05 alpha_mix =  0.700 |ddv_scf|^2 =  5.087E-09

      iter #   5 total cpu time : 21940.6 secs   av.it.:   9.7
      thresh= 7.132E-06 alpha_mix =  0.700 |ddv_scf|^2 =  8.974E-12

      iter #   6 total cpu time : 21946.6 secs   av.it.:  10.2
      thresh= 2.996E-07 alpha_mix =  0.700 |ddv_scf|^2 =  1.554E-12

      iter #   7 total cpu time : 21952.5 secs   av.it.:  10.0
      thresh= 1.247E-07 alpha_mix =  0.700 |ddv_scf|^2 =  2.875E-14

      iter #   8 total cpu time : 21958.0 secs   av.it.:   9.6
      thresh= 1.696E-08 alpha_mix =  0.700 |ddv_scf|^2 =  3.387E-16

     End of self-consistent calculation

     Convergence has been achieved 


     Representation #   5 mode #   5

     Self-consistent Calculation

      iter #   1 total cpu time : 21962.2 secs   av.it.:   4.8
      thresh= 1.000E-02 alpha_mix =  0.700 |ddv_scf|^2 =  1.022E-07

      iter #   2 total cpu time : 21968.1 secs   av.it.:  10.4
      thresh= 3.197E-05 alpha_mix =  0.700 |ddv_scf|^2 =  7.855E-08

      iter #   3 total cpu time : 21973.6 secs   av.it.:   9.8
      thresh= 2.803E-05 alpha_mix =  0.700 |ddv_scf|^2 =  1.224E-09

      iter #   4 total cpu time : 21979.3 secs   av.it.:   9.8
      thresh= 3.499E-06 alpha_mix =  0.700 |ddv_scf|^2 =  2.041E-10

      iter #   5 total cpu time : 21985.1 secs   av.it.:  10.0
      thresh= 1.429E-06 alpha_mix =  0.700 |ddv_scf|^2 =  7.546E-12

      iter #   6 total cpu time : 21990.7 secs   av.it.:  10.0
      thresh= 2.747E-07 alpha_mix =  0.700 |ddv_scf|^2 =  1.536E-13

      iter #   7 total cpu time : 21996.5 secs   av.it.:   9.9
      thresh= 3.919E-08 alpha_mix =  0.700 |ddv_scf|^2 =  7.975E-15

     End of self-consistent calculation

     Convergence has been achieved 


     Representation #   6 mode #   6

     Self-consistent Calculation

      iter #   1 total cpu time : 22000.5 secs   av.it.:   4.8
      thresh= 1.000E-02 alpha_mix =  0.700 |ddv_scf|^2 =  9.406E-08

      iter #   2 total cpu time : 22006.4 secs   av.it.:  10.4
      thresh= 3.067E-05 alpha_mix =  0.700 |ddv_scf|^2 =  6.840E-08

      iter #   3 total cpu time : 22012.2 secs   av.it.:   9.8
      thresh= 2.615E-05 alpha_mix =  0.700 |ddv_scf|^2 =  1.365E-09

      iter #   4 total cpu time : 22018.0 secs   av.it.:   9.7
      thresh= 3.695E-06 alpha_mix =  0.700 |ddv_scf|^2 =  2.192E-10

      iter #   5 total cpu time : 22023.7 secs   av.it.:  10.0
      thresh= 1.480E-06 alpha_mix =  0.700 |ddv_scf|^2 =  8.375E-12

      iter #   6 total cpu time : 22029.5 secs   av.it.:  10.0
      thresh= 2.894E-07 alpha_mix =  0.700 |ddv_scf|^2 =  1.168E-13

      iter #   7 total cpu time : 22035.3 secs   av.it.:  10.0
      thresh= 3.417E-08 alpha_mix =  0.700 |ddv_scf|^2 =  6.030E-15

     End of self-consistent calculation

     Convergence has been achieved 


     Representation #   7 mode #   7

     Self-consistent Calculation

      iter #   1 total cpu time : 22039.9 secs   av.it.:   5.6
      thresh= 1.000E-02 alpha_mix =  0.700 |ddv_scf|^2 =  4.194E-06

      iter #   2 total cpu time : 22045.1 secs   av.it.:   8.9
      thresh= 2.048E-04 alpha_mix =  0.700 |ddv_scf|^2 =  3.800E-07

      iter #   3 total cpu time : 22050.7 secs   av.it.:   9.2
      thresh= 6.165E-05 alpha_mix =  0.700 |ddv_scf|^2 =  2.504E-08

      iter #   4 total cpu time : 22056.3 secs   av.it.:  10.1
      thresh= 1.582E-05 alpha_mix =  0.700 |ddv_scf|^2 =  5.848E-09

      iter #   5 total cpu time : 22061.9 secs   av.it.:   9.6
      thresh= 7.647E-06 alpha_mix =  0.700 |ddv_scf|^2 =  1.150E-11

      iter #   6 total cpu time : 22067.8 secs   av.it.:  10.0
      thresh= 3.391E-07 alpha_mix =  0.700 |ddv_scf|^2 =  1.744E-12

      iter #   7 total cpu time : 22073.5 secs   av.it.:  10.0
      thresh= 1.320E-07 alpha_mix =  0.700 |ddv_scf|^2 =  1.257E-13

      iter #   8 total cpu time : 22079.2 secs   av.it.:   9.8
      thresh= 3.545E-08 alpha_mix =  0.700 |ddv_scf|^2 =  5.776E-16

     End of self-consistent calculation

     Convergence has been achieved 


     Representation #   8 mode #   8

     Self-consistent Calculation

      iter #   1 total cpu time : 22083.8 secs   av.it.:   5.6
      thresh= 1.000E-02 alpha_mix =  0.700 |ddv_scf|^2 =  5.077E-06

      iter #   2 total cpu time : 22089.0 secs   av.it.:   9.1
      thresh= 2.253E-04 alpha_mix =  0.700 |ddv_scf|^2 =  4.706E-07

      iter #   3 total cpu time : 22094.6 secs   av.it.:   9.7
      thresh= 6.860E-05 alpha_mix =  0.700 |ddv_scf|^2 =  7.215E-08

      iter #   4 total cpu time : 22100.4 secs   av.it.:  10.0
      thresh= 2.686E-05 alpha_mix =  0.700 |ddv_scf|^2 =  3.430E-09

      iter #   5 total cpu time : 22106.1 secs   av.it.:  10.0
      thresh= 5.856E-06 alpha_mix =  0.700 |ddv_scf|^2 =  3.278E-11

      iter #   6 total cpu time : 22111.9 secs   av.it.:  10.0
      thresh= 5.725E-07 alpha_mix =  0.700 |ddv_scf|^2 =  4.275E-12

      iter #   7 total cpu time : 22117.6 secs   av.it.:   9.6
      thresh= 2.068E-07 alpha_mix =  0.700 |ddv_scf|^2 =  1.806E-14

      iter #   8 total cpu time : 22123.0 secs   av.it.:   9.5
      thresh= 1.344E-08 alpha_mix =  0.700 |ddv_scf|^2 =  3.723E-16

     End of self-consistent calculation

     Convergence has been achieved 


     Representation #   9 mode #   9

     Self-consistent Calculation

      iter #   1 total cpu time : 22127.0 secs   av.it.:   4.3
      thresh= 1.000E-02 alpha_mix =  0.700 |ddv_scf|^2 =  5.928E-08

      iter #   2 total cpu time : 22132.7 secs   av.it.:  10.2
      thresh= 2.435E-05 alpha_mix =  0.700 |ddv_scf|^2 =  3.027E-08

      iter #   3 total cpu time : 22138.4 secs   av.it.:   9.7
      thresh= 1.740E-05 alpha_mix =  0.700 |ddv_scf|^2 =  1.238E-09

      iter #   4 total cpu time : 22144.0 secs   av.it.:   9.7
      thresh= 3.518E-06 alpha_mix =  0.700 |ddv_scf|^2 =  2.921E-11

      iter #   5 total cpu time : 22149.8 secs   av.it.:  10.0
      thresh= 5.405E-07 alpha_mix =  0.700 |ddv_scf|^2 =  3.259E-12

      iter #   6 total cpu time : 22155.5 secs   av.it.:  10.0
      thresh= 1.805E-07 alpha_mix =  0.700 |ddv_scf|^2 =  1.863E-13

      iter #   7 total cpu time : 22161.3 secs   av.it.:   9.9
      thresh= 4.317E-08 alpha_mix =  0.700 |ddv_scf|^2 =  2.372E-15

     End of self-consistent calculation

     Convergence has been achieved 


     Representation #  10 mode #  10

     Self-consistent Calculation

      iter #   1 total cpu time : 22165.3 secs   av.it.:   4.4
      thresh= 1.000E-02 alpha_mix =  0.700 |ddv_scf|^2 =  5.054E-08

      iter #   2 total cpu time : 22171.2 secs   av.it.:  10.2
      thresh= 2.248E-05 alpha_mix =  0.700 |ddv_scf|^2 =  1.894E-08

      iter #   3 total cpu time : 22176.9 secs   av.it.:   9.8
      thresh= 1.376E-05 alpha_mix =  0.700 |ddv_scf|^2 =  1.463E-09

      iter #   4 total cpu time : 22182.6 secs   av.it.:   9.8
      thresh= 3.825E-06 alpha_mix =  0.700 |ddv_scf|^2 =  4.166E-11

      iter #   5 total cpu time : 22188.4 secs   av.it.:  10.1
      thresh= 6.454E-07 alpha_mix =  0.700 |ddv_scf|^2 =  2.804E-12

      iter #   6 total cpu time : 22194.3 secs   av.it.:  10.1
      thresh= 1.674E-07 alpha_mix =  0.700 |ddv_scf|^2 =  2.420E-13

      iter #   7 total cpu time : 22200.0 secs   av.it.:  10.0
      thresh= 4.919E-08 alpha_mix =  0.700 |ddv_scf|^2 =  4.435E-15

     End of self-consistent calculation

     Convergence has been achieved 


     Representation #  11 mode #  11

     Self-consistent Calculation

      iter #   1 total cpu time : 22204.9 secs   av.it.:   6.1
      thresh= 1.000E-02 alpha_mix =  0.700 |ddv_scf|^2 =  1.505E-05

      iter #   2 total cpu time : 22210.3 secs   av.it.:   9.3
      thresh= 3.880E-04 alpha_mix =  0.700 |ddv_scf|^2 =  2.793E-06

      iter #   3 total cpu time : 22215.9 secs   av.it.:  10.1
      thresh= 1.671E-04 alpha_mix =  0.700 |ddv_scf|^2 =  1.444E-06

      iter #   4 total cpu time : 22221.5 secs   av.it.:   9.6
      thresh= 1.201E-04 alpha_mix =  0.700 |ddv_scf|^2 =  6.294E-09

      iter #   5 total cpu time : 22227.3 secs   av.it.:  10.1
      thresh= 7.934E-06 alpha_mix =  0.700 |ddv_scf|^2 =  2.820E-10

      iter #   6 total cpu time : 22232.9 secs   av.it.:   9.9
      thresh= 1.679E-06 alpha_mix =  0.700 |ddv_scf|^2 =  7.822E-13

      iter #   7 total cpu time : 22238.8 secs   av.it.:   9.9
      thresh= 8.844E-08 alpha_mix =  0.700 |ddv_scf|^2 =  1.955E-14

      iter #   8 total cpu time : 22244.5 secs   av.it.:   9.9
      thresh= 1.398E-08 alpha_mix =  0.700 |ddv_scf|^2 =  9.133E-16

     End of self-consistent calculation

     Convergence has been achieved 


     Representation #  12 mode #  12

     Self-consistent Calculation

      iter #   1 total cpu time : 22249.1 secs   av.it.:   5.8
      thresh= 1.000E-02 alpha_mix =  0.700 |ddv_scf|^2 =  3.958E-06

      iter #   2 total cpu time : 22254.6 secs   av.it.:   9.5
      thresh= 1.989E-04 alpha_mix =  0.700 |ddv_scf|^2 =  6.290E-07

      iter #   3 total cpu time : 22260.4 secs   av.it.:  10.1
      thresh= 7.931E-05 alpha_mix =  0.700 |ddv_scf|^2 =  3.250E-07

      iter #   4 total cpu time : 22265.9 secs   av.it.:   9.7
      thresh= 5.701E-05 alpha_mix =  0.700 |ddv_scf|^2 =  4.360E-09

      iter #   5 total cpu time : 22271.7 secs   av.it.:  10.0
      thresh= 6.603E-06 alpha_mix =  0.700 |ddv_scf|^2 =  1.963E-10

      iter #   6 total cpu time : 22277.5 secs   av.it.:  10.0
      thresh= 1.401E-06 alpha_mix =  0.700 |ddv_scf|^2 =  2.094E-12

      iter #   7 total cpu time : 22283.1 secs   av.it.:   9.7
      thresh= 1.447E-07 alpha_mix =  0.700 |ddv_scf|^2 =  3.784E-14

      iter #   8 total cpu time : 22288.5 secs   av.it.:   9.3
      thresh= 1.945E-08 alpha_mix =  0.700 |ddv_scf|^2 =  1.753E-15

     End of self-consistent calculation

     Convergence has been achieved 

     Number of q in the star =    2
     List of q in the star:
          1  -0.500000000   0.000000000   0.000000000
          2   0.500000000   0.000000000   0.000000000

     Diagonalizing the dynamical matrix

     q = (   -0.500000000   0.000000000   0.000000000 ) 

 **************************************************************************
     freq (    1) =      10.544118 [THz] =     351.713902 [cm-1]
     freq (    2) =      17.718888 [THz] =     591.038498 [cm-1]
     freq (    3) =      20.765980 [THz] =     692.678533 [cm-1]
     freq (    4) =      28.622252 [THz] =     954.735571 [cm-1]
     freq (    5) =      31.766477 [THz] =    1059.615601 [cm-1]
     freq (    6) =      32.622342 [THz] =    1088.164204 [cm-1]
     freq (    7) =      35.659488 [THz] =    1189.472477 [cm-1]
     freq (    8) =      38.648745 [THz] =    1289.183368 [cm-1]
     freq (    9) =      39.655719 [THz] =    1322.772404 [cm-1]
     freq (   10) =      39.895561 [THz] =    1330.772656 [cm-1]
     freq (   11) =      85.471479 [THz] =    2851.021665 [cm-1]
     freq (   12) =      85.804661 [THz] =    2862.135405 [cm-1]
 **************************************************************************

     Mode symmetry, C_1 (1)     point group:

     freq (   1-   1) =        351.7  [cm-1]   --> A                  
     freq (   2-   2) =        591.0  [cm-1]   --> A                  
     freq (   3-   3) =        692.7  [cm-1]   --> A                  
     freq (   4-   4) =        954.7  [cm-1]   --> A                  
     freq (   5-   5) =       1059.6  [cm-1]   --> A                  
     freq (   6-   6) =       1088.2  [cm-1]   --> A                  
     freq (   7-   7) =       1189.5  [cm-1]   --> A                  
     freq (   8-   8) =       1289.2  [cm-1]   --> A                  
     freq (   9-   9) =       1322.8  [cm-1]   --> A                  
     freq (  10-  10) =       1330.8  [cm-1]   --> A                  
     freq (  11-  11) =       2851.0  [cm-1]   --> A                  
     freq (  12-  12) =       2862.1  [cm-1]   --> A                  

     init_run     :      5.46s CPU      6.05s WALL (      42 calls)
     electrons    :   1916.54s CPU   2034.93s WALL (      42 calls)

     Called by init_run:
     wfcinit      :      0.01s CPU      0.02s WALL (      42 calls)
     potinit      :      0.38s CPU      0.55s WALL (      42 calls)
     hinit0       :      3.53s CPU      3.72s WALL (      42 calls)

     Called by electrons:
     c_bands      :   1916.53s CPU   2034.91s WALL (      42 calls)
     v_of_rho     :      0.33s CPU      0.38s WALL (      43 calls)
     newd         :      0.23s CPU      0.28s WALL (      43 calls)

     Called by c_bands:
     init_us_2    :     99.68s CPU    111.50s WALL (  688214 calls)
     init_us_2:cp :     98.42s CPU    110.40s WALL (  688214 calls)
     cegterg      :   1834.72s CPU   1944.76s WALL (   23114 calls)

     Called by *egterg:
     cdiaghg      :    143.67s CPU    150.77s WALL (  349811 calls)
     h_psi        :  12275.24s CPU  13307.75s WALL ( 5894701 calls)
     s_psi        :   1409.38s CPU   1520.09s WALL (11936862 calls)
     g_psi        :      6.42s CPU      6.64s WALL (  338717 calls)

     Called by h_psi:
     h_psi:calbec :   1017.11s CPU   1100.99s WALL ( 5894701 calls)
     vloc_psi     :  10497.95s CPU  11386.22s WALL ( 5894701 calls)
     add_vuspsi   :    707.10s CPU    765.43s WALL ( 5894701 calls)

     General routines
     calbec       :   2345.87s CPU   2532.04s WALL (12895503 calls)
     fft          :     31.35s CPU     34.29s WALL (   68620 calls)
     ffts         :     36.25s CPU     39.97s WALL (   74304 calls)
     fftw         :  11967.99s CPU  13068.25s WALL (66134644 calls)
     davcio       :    197.13s CPU    228.29s WALL ( 2828583 calls)

     Parallel routines

     PHONON       :      5h41m CPU      6h11m WALL

     INITIALIZATION: 
     phq_setup    :      0.85s CPU      0.94s WALL (      43 calls)
     phq_init     :    198.06s CPU    212.61s WALL (      43 calls)

     phq_init     :    198.06s CPU    212.61s WALL (      43 calls)
     set_drhoc    :      6.11s CPU      6.32s WALL (     129 calls)
     init_vloc    :      1.00s CPU      1.01s WALL (      43 calls)
     init_us_1    :      1.54s CPU      1.70s WALL (      43 calls)
     init_us_2    :     99.68s CPU    111.50s WALL (  688214 calls)
     newd         :      0.23s CPU      0.28s WALL (      43 calls)
     dvanqq       :      3.32s CPU      3.35s WALL (      43 calls)
     drho         :    155.25s CPU    168.45s WALL (      43 calls)

     DYNAMICAL MATRIX:
     dynmat0      :     22.66s CPU     23.01s WALL (      43 calls)
     phqscf       :  18309.17s CPU  19948.50s WALL (      43 calls)
     dynmatrix    :      0.06s CPU      0.12s WALL (      43 calls)

     phqscf       :  18309.17s CPU  19948.50s WALL (      43 calls)
     solve_linter :  18170.34s CPU  19806.19s WALL (     516 calls)
     drhodv       :    129.50s CPU    131.96s WALL (     516 calls)

     dynmat0      :     22.66s CPU     23.01s WALL (      43 calls)
     dynmat_us    :     17.25s CPU     17.53s WALL (      43 calls)
     d2ionq       :      0.37s CPU      0.38s WALL (      43 calls)
     dynmatcc     :      4.72s CPU      4.77s WALL (      43 calls)

     dynmat_us    :     17.25s CPU     17.53s WALL (      43 calls)
     addusdynmat  :      0.00s CPU      0.00s WALL (      43 calls)

     phqscf       :  18309.17s CPU  19948.50s WALL (      43 calls)
     solve_linter :  18170.34s CPU  19806.19s WALL (     516 calls)

     solve_linter :  18170.34s CPU  19806.19s WALL (     516 calls)
     dvqpsi_us    :    400.41s CPU    442.37s WALL (   67596 calls)
     sth_kernel   :  17688.86s CPU  19272.47s WALL (    3972 calls)
     apply_dpot_b :    896.51s CPU   1034.28s WALL (  452918 calls)
     ortho        :    243.72s CPU    275.33s WALL (  520256 calls)
     cgsolve      :  14826.89s CPU  16041.67s WALL (  520256 calls)
     incdrhoscf   :   1291.03s CPU   1428.60s WALL (  520256 calls)
     addusddens   :     33.52s CPU     34.45s WALL (    4479 calls)
     dv_of_drho   :     23.96s CPU     25.91s WALL (    3993 calls)
     mix_pot      :      6.44s CPU      9.10s WALL (    3972 calls)
     psymdvscf    :      6.99s CPU      7.37s WALL (     691 calls)
     newdq        :     27.73s CPU     30.72s WALL (    3972 calls)
     adddvscf     :    138.27s CPU    158.21s WALL (  452918 calls)
     drhodvus     :      0.33s CPU      0.50s WALL (     516 calls)

     dvqpsi_us    :    400.41s CPU    442.37s WALL (   67596 calls)
     dvqpsi_us_on :     49.47s CPU     53.88s WALL (   67596 calls)

     cgsolve      :  14826.89s CPU  16041.67s WALL (  520256 calls)
     ch_psi       :  14242.61s CPU  15414.89s WALL ( 5521776 calls)

     ch_psi       :  14242.61s CPU  15414.89s WALL ( 5521776 calls)
     h_psi        :  12275.24s CPU  13307.75s WALL ( 5894701 calls)
     last         :   2357.80s CPU   2524.69s WALL ( 5521776 calls)

     h_psi        :  12275.24s CPU  13307.75s WALL ( 5894701 calls)
     add_vuspsi   :    707.10s CPU    765.43s WALL ( 5894701 calls)

     incdrhoscf   :   1291.03s CPU   1428.60s WALL (  520256 calls)
     addusdbec    :    251.00s CPU    276.30s WALL (  587336 calls)

     drhodvus     :      0.33s CPU      0.50s WALL (     516 calls)

      General routines
     calbec       :   2345.87s CPU   2532.04s WALL (12895503 calls)
     fft          :     31.35s CPU     34.29s WALL (   68620 calls)
     ffts         :     36.25s CPU     39.97s WALL (   74304 calls)
     fftw         :  11967.99s CPU  13068.25s WALL (66134644 calls)
     davcio       :    197.13s CPU    228.29s WALL ( 2828583 calls)
     write_rec    :      2.83s CPU      3.55s WALL (    4488 calls)


     PHONON       :      5h41m CPU      6h11m WALL


   This run was terminated on:   6:57:37  29Mar2023            

=------------------------------------------------------------------------------=
   JOB DONE.
=------------------------------------------------------------------------------=
